package cuda gpu/node 1 0
package omp 2 force/neigh
using multi-threaded neighbor list subroutines
prefer double precision OpenMP force kernels
# ------------------------ INITIALIZATION ----------------------------
units 		metal
dimension	3
boundary	s	s	p
atom_style	atomic


read_restart cut_sic.pre_cut.restart
  orthogonal box = (-0.033967 -0.00821494 0) to (323.135 82.1412 78.6006)
  1 by 1 by 1 MPI processor grid
  163956 atoms
reset_timestep 0
fix 13 all property/atom mol
Resetting per-atom state of Fix 13 Style property/atom from restart file info

#dump	 0dumpCSP all custom  500 dump.cutsic.*.lammpstrj id type mol x y z vx vy vz
run 0
No /omp style for force computation currently active
Memory usage per processor = 26.2016 Mbytes
Step Temp E_pair E_mol TotEng Press Volume 
       0     327.4678            0            0    6939.9749    3552.3908    2086681.9 
Loop time of 0.08372 on 1 procs for 0 steps with 163956 atoms

Pair  time (%) = 0 (0)
Neigh time (%) = 0 (0)
Comm  time (%) = 0 (0)
Outpt time (%) = 0 (0)
Other time (%) = 0.08372 (100)

Nlocal:    163956 ave 163956 max 163956 min
Histogram: 1 0 0 0 0 0 0 0 0 0
Nghost:    239 ave 239 max 239 min
Histogram: 1 0 0 0 0 0 0 0 0 0
Neighs:    0 ave 0 max 0 min
Histogram: 1 0 0 0 0 0 0 0 0 0

Total # of neighbors = 0
Ave neighs/atom = 0
Neighbor list builds = 0
Dangerous builds = 0

group gpDia type 1
20658 atoms in group gpDia
group gpCTbd  molecule  3
3696 atoms in group gpCTbd
group gpCTtsbd  molecule 2
3344 atoms in group gpCTtsbd
group gpCTmob molecule 1
13618 atoms in group gpCTmob

print "diamond tool created"
diamond tool created
#------------------------------------------------------------

# define the lattice of cubic SiC (two atom types form two interpenetrating face-centered cubic lattices)


# groups atoms
group gpSiC type 2 3
143298 atoms in group gpSiC
group gpWPbd molecule 6
14274 atoms in group gpWPbd
group gpWPtsbd molecule 5
13914 atoms in group gpWPtsbd
group gpWPmob molecule 4
117936 atoms in group gpWPmob

group mobile subtract all gpCTtsbd gpWPtsbd
146698 atoms in group mobile

print "Workpiece created"
Workpiece created

#-------------------------------------------------


# define the mass of atoms
mass 1 12 #.0107 # C (g/mol)
mass 2 28 #.0855 # Si (g/mol)
mass 3 12 #.0107 # C (g/mol)



#lattice diamond 3.56683
#region groove4 block  36.6678535282029 46.6678535282029 12.2226178427343 21.2226178427343 6.5 7.5
#region groove5 block  36.6678535282029 46.6678535282029 12.2226178427343 20.2226178427343 6.0 8.0
#region groove6 block 36.6678535282029 46.6678535282029 12.2226178427343 19.2226178427343 5.5 8.5
#region groove7 block 36.6678535282029 46.6678535282029 12.2226178427343 18.2226178427343 5.0 9.0
#region groove8 block 36.6678535282029 46.6678535282029 12.2226178427343 17.2226178427343 4.5 9.5
#region groove9 block 36.6678535282029 46.6678535282029 12.2226178427343 16.2226178427343 4.0 10.0
#region groove10 block 36.6678535282029 46.6678535282029 12.2226178427343 15.2226178427343 3.5 10.5
#region groove11 block 36.6678535282029 46.6678535282029 12.2226178427343 14.2226178427343 3.0  11.0
#region groove12 block 36.6678535282029 46.6678535282029 12.2226178427343 13.2226178427343 2.5 115

#delete_atoms region groove4
#delete_atoms region groove5
#delete_atoms region groove6
#delete_atoms region groove7
#delete_atoms region groove8
#delete_atoms region groove9
#delete_atoms region groove10
#delete_atoms region groove11
#delete_atoms region groove12

#lattice fcc 4.3596 origin 0 0 0

# ------------------------ FORCE FIELDS ------------------------------

pair_style	tersoff
pair_coeff	* * SiC_Erhart-Albe.tersoff C Si C

# ------------------------- SETTINGS ---------------------------------######################################

# DEFORMATION


fix 1 gpWPall nvt temp 300.0 300.0 0.05 #iso 1.0 1.0 0.5
fix 2 gpCTall nvt temp 300.0 300.0 0.05 #iso 1.0 1.0 0.5

unfix 1
unfix 2

compute myCTtemp gpCTmob temp/partial 0 1 1
compute myWPtemp gpWPmob temp/partial 0 1 1
compute myCTTStemp gpCTtsbd temp
compute myWPTStemp gpWPtsbd temp/partial 0 1 1
#compute myCTpress gpCTmob pressure myCTtemp
#compute myWPpress gpWPmob pressure myWPtemp

timestep 0.0005 # set 1 femtosecond per step

fix 1 gpWPtsbd nvt temp 300.0 300.0 0.05 #iso 1.0 1.0 0.5
fix_modify 1 temp myWPTStemp
WARNING: Temperature for fix modify is not for group all (../fix_nh_cuda.cpp:1265)
fix 2 gpCTtsbd nvt temp 300.0 300.0 0.05 #iso 1.0 1.0 0.5
fix_modify 2 temp myCTTStemp
WARNING: Temperature for fix modify is not for group all (../fix_nh_cuda.cpp:1265)

#fix 3 gpWPbd setforce 0.0 0.0 0.0 #move linear 0 0 0
#fix 4 gpCTbd setforce 0.0 0.0 0.0 # units box sum no
#velocity gpCTbd set -1.0 0.0 0.0 units box
fix 3 gpWPbd move linear 0 0 0
fix 4 gpCTbd move linear -1.0 0 0 units box

fix 5 mobile nve

fix 10 all balance 100 xy 10 1.05 out tmp.balance
compute ke all ke/atom
fix 12 all ave/atom 10 50 500 c_ke
#fix 13 all property/atom mol

#set group gpCTmob mol 1
#set group gpCTtsbd mol 2
#set group gpCTbd mol 3

#set group gpWPmob mol 4
#set group gpWPtsbd mol 5
#set group gpWPbd mol 6

thermo 	500
thermo_style custom step c_myCTtemp c_myWPtemp press etotal fmax fnorm


# move the tool to closer

#displace_atoms gpDia move -4.8 0 0


# Output strain and stress info to file
# for units metal, pressure is in [bars] = 100 [kPa] = 1/10000 [GPa]
# p2, p3, p4 are in GPa

#compute atomdisp  all displace/atom
#compute atomstres all stress/atom
dump	 0dumpCSP all custom  500 dump.cutsic.*.lammpstrj id type mol x y z vx vy vz f_12
  #c_atomdisp[4] c_atomstres[1] c_atomstres[2] c_atomstres[3] c_atomstres[4] c_atomstres[5] c_atomstres[6]
dump_modify 0dumpCSP element C Si C

#write_restart cut_sic.restart.0000
restart 10000 cut_sic.*.restart
run	400000 # full 20 nm
No /omp style for force computation currently active
WARNING: One or more atoms are time integrated more than once (../modify_cuda.cpp:225)
Memory usage per processor = 72.0197 Mbytes
Step myCTtemp myWPtemp Press TotEng Fmax Fnorm 
       0     312.8994    373.51935   -2572.3406   -1029710.1     7.741091    759.63124 
WARNING: # CUDA: You asked for a Verlet integration using Cuda, but several fixes have not yet been ported to Cuda.
This can cause a severe speed penalty due to frequent data synchronization between host and GPU. (../verlet_cuda.cpp:632)
     500     311.6732    375.49883    208.57922   -1029709.4    8.5544279    764.35087 
    1000    315.21211    376.22408    2057.0126   -1029694.7    8.8472842    765.79685 
    1500     310.2598    378.64774    4169.3422     -1029685    7.3652277     767.3458 
    2000    310.68068     375.6064    6781.1293   -1029662.8    11.106436    770.93624 
    2500    309.85025    378.17488    5692.8469   -1029645.7    8.5120758    769.20511 
    3000    313.30088    378.24504    6078.3436   -1029619.6    9.0685856    769.16025 
    3500    309.40149    377.11825    4540.1846   -1029586.3    8.5110029    769.31608 
    4000    311.43694    375.09641    4050.1079   -1029535.3    8.8846179    770.21668 
    4500    312.46059     376.9746    4906.1974   -1029484.6    10.053361    769.67242 
    5000    311.20309    377.47343    6317.1501   -1029438.8    9.9616852    774.24638 
    5500    310.06838    380.18553    9249.2251   -1029400.7    8.7774824    777.19318 
    6000    310.21003    379.17716     11246.29   -1029356.6    8.6572006     778.8394 
    6500    310.76902     379.1566    13025.493   -1029301.2     8.535354    782.92527 
    7000    314.19905    379.31746    13122.534   -1029230.8    8.8901332    783.98126 
    7500     315.5415    379.77449    11891.287   -1029178.9    8.4476868    782.39053 
    8000    309.95389    380.14888    11704.994   -1029107.7    14.362953    784.99459 
    8500    311.08775    379.97295    11465.451   -1029014.1    10.288632    785.89746 
    9000    312.20739    381.22747    13483.917   -1028918.3     10.18266    788.56014 
    9500    310.68972    381.96299    15695.415   -1028825.9     10.03061    793.33853 
   10000     313.2883      384.262    18584.923   -1028738.1    8.9755322    796.95259 
   10500    312.61881    382.44987    20501.746   -1028645.3    10.483192    799.08666 
   11000    316.32188    382.60625     21086.27   -1028542.5    10.415786      801.798 
   11500    313.19508    383.07863    21221.134   -1028448.4    10.156228    804.27008 
   12000    319.77686    384.63767    21718.393   -1028321.7    11.625357     809.4331 
   12500    317.44817    382.27199    20428.318   -1028218.2    10.710179    807.91941 
   13000    315.66445    384.28917    20906.019   -1028077.1    10.669346    810.47781 
   13500    325.33051    385.63096    23417.447     -1027941    13.869765    814.54815 
   14000    321.32804    389.08625    27179.312   -1027804.9    11.341188    822.82403 
   14500    317.22387    386.75914    30032.647   -1027660.3    11.955578    826.95423 
   15000    319.12366    389.39103    33565.994   -1027502.9    11.061623    835.72053 
   15500    318.17387     389.3007    33348.574   -1027337.7    10.900595    834.28377 
   16000    321.26072    390.53031    32358.767   -1027147.1    10.971527    835.99508 
   16500    326.76143    390.65839    32883.185   -1026948.5    11.233879      839.278 
   17000    322.77697    388.30913    33132.476   -1026760.9    10.327847    845.00125 
   17500    330.04408     388.5188    33381.357     -1026591    11.557051    845.29247 
   18000    331.69609    391.34137    37025.026   -1026400.3    11.026891    856.77316 
   18500    334.75119      393.355    39791.514   -1026222.5    11.754012    858.16655 
   19000    335.94463    394.77773    42438.023   -1026014.7    12.740745    861.05352 
   19500    335.25844      394.958    45009.996   -1025796.6    11.213606    864.93531 
   20000    341.53609     394.9461    46597.024   -1025576.2    11.317702    869.36237 
   20500    336.31606    395.87218    46928.824   -1025332.8    13.627632    875.20105 
   21000    334.64086    395.88891    46543.165   -1025081.2    11.388958    876.29395 
   21500    330.47182    396.12482    46919.856   -1024836.3    11.440055    876.34643 
   22000    330.21443    396.17172    48671.031   -1024576.2     11.46463    879.46005 
   22500    326.85794    397.54602    53008.848   -1024274.7    12.730368    886.92001 
   23000    330.08784    396.61289    57015.635   -1023993.9    11.060413     893.9781 
   23500    331.22692    399.10188     61025.55   -1023706.2    15.754292     900.5962 
   24000     330.9251    397.60883    63019.268   -1023398.8    12.235231    901.72136 
   24500    338.20595    399.95134    63358.226   -1023077.6    11.252983    902.70077 
   25000    339.95004    402.22918    61744.245   -1022771.5    11.260666    901.38216 
   25500    341.82543    401.11632    60419.616   -1022457.1    11.772854    898.54463 
   26000     348.1759    401.28317    59312.753   -1022150.4    13.665129    903.15886 
   26500    343.46816    401.25367    60418.051   -1021855.2    13.763372    906.59667 
   27000     347.2328    405.12823    62633.539   -1021537.1     12.92072    905.38722 
   27500    352.82036    407.01395     64986.29   -1021225.6    12.904416    912.61229 
   28000    357.58058    408.22491    67279.146   -1020901.6    13.351769     914.6676 
   28500     361.2821    411.99127    66571.586   -1020581.7    11.758271    915.16045 
   29000    361.05318    421.73525    64721.158   -1020257.1    15.083856    923.13382 
   29500    389.33345     444.5432    60352.524   -1019961.2    27.319319    933.24455 
   30000    453.88636    482.25665    51114.938     -1019705    21.438148    942.06002 
   30500    536.22455    497.99717    43813.376   -1019580.1    25.144635      949.422 
   31000    593.80166    509.96303    39787.577   -1019539.9    30.050723    956.99157 
   31500     623.8325    512.96385    42245.058   -1019566.1    23.671215    972.95907 
   32000    629.23083    515.13762    44920.306   -1019607.8    20.948896    983.24821 
   32500    632.21675    514.74338     46190.52   -1019674.3    18.178998    988.29019 
   33000    592.88589    516.65907    45907.966     -1019761    20.065154    984.66955 
   33500    563.90822    511.63854    46149.795   -1019845.2    20.648122    982.32856 
   34000    531.93744    509.70445    45007.344   -1019911.4     18.65902    972.06969 
   34500    506.84846    503.40617    44289.951   -1019939.2    17.747694    965.00397 
   35000    479.26491    502.01386    45657.343   -1019942.3    21.656594    964.95046 
   35500    455.81996    503.72676    49312.435   -1019915.9    22.475916    969.61936 
   36000    436.26806    498.47907    53981.004   -1019854.3    19.683604    972.13831 
   36500    427.58465    496.48947    56643.591   -1019764.2    15.281306    973.10677 
   37000    411.26904    492.21765    57901.465   -1019648.3    18.411749    970.87782 
   37500     407.7221    495.50228    59489.965   -1019507.5    14.511283    972.47084 
   38000    408.48938    490.44075    58387.213   -1019352.4    16.943422    970.26676 
   38500    404.11379     488.6563    58829.496   -1019196.7    18.399275    969.81809 
   39000     403.5958    486.19185    59314.047   -1019039.8    17.198112    969.48334 
   39500    398.79527    485.22428     59939.43   -1018864.7    19.562253    971.75632 
   40000    400.74043    486.16314    62076.088   -1018679.7    15.435258    975.23761 
   40500    414.67765    484.73358    63479.661   -1018488.3    19.478863    976.56288 
   41000     415.0932    486.07143    64521.386   -1018318.9    19.990425    985.13072 
   41500    425.62955    489.15464    64637.535   -1018160.9    18.867496    988.66129 
   42000    422.69284    495.75238    63307.818   -1018007.1    19.010539    986.42618 
   42500    426.32171    488.49129    61211.387   -1017851.7    27.203682     990.7444 
   43000    431.17798    492.28573    63155.968   -1017695.4     18.25563    993.56361 
   43500    428.82556    493.32048    65154.517     -1017539     15.07926    991.34537 
   44000    427.87441    491.18778    66963.901   -1017380.8    25.213768    992.77138 
   44500    423.86512    492.32232    68290.566   -1017224.3    19.010599    997.53889 
   45000    426.50769    490.72262    67002.541   -1017071.1     24.01409    994.95178 
   45500    429.32567    489.11907    65302.921   -1016908.2    15.887533    990.54675 
   46000    423.96655    489.41517    64214.067   -1016731.4    13.871788    991.81824 
   46500    426.68146    491.29751    64037.774     -1016571    17.679415    995.22498 
   47000    427.82685    491.07604    64556.091   -1016412.7    23.773234    996.75648 
   47500    431.12802    497.59358    68251.043   -1016256.3    15.714459    1004.8194 
   48000    437.04477    502.86866    71530.953   -1016097.1    15.175539     1012.917 
   48500    435.05651      506.476    72526.508   -1015936.4    16.584841    1015.8914 
   49000    446.44383    509.61573    69862.023   -1015785.2    22.264396    1015.8211 
   49500    455.75907    511.97518     66560.18   -1015647.9    18.819442    1010.7177 
   50000    453.68762    510.35172    62299.174   -1015520.4    19.964117     1009.479 
   50500     455.4207    514.07995    61581.891   -1015429.4    16.977773    1015.6635 
   51000    452.88109    515.48884    61702.743   -1015340.1    17.128225    1017.6511 
   51500    453.79407    521.40026    62452.687   -1015248.3    17.784523     1020.251 
   52000    458.09294    524.06098    65208.731   -1015147.5    18.505572     1027.504 
   52500    454.61203    529.74219    68808.445   -1015047.3    17.511847    1035.1697 
   53000    461.64661    531.06348    71833.517   -1014953.4    24.798362    1039.4092 
   53500    449.00455    528.38216    70320.839     -1014854    28.424031    1040.4214 
   54000     458.4667    527.87504    67931.563   -1014758.9    16.663211    1036.4129 
   54500    443.74938    531.36183    64329.025   -1014669.1    19.156902    1027.4943 
   55000    442.87955    525.49959    61812.987   -1014565.7    22.034721    1028.8153 
   55500    448.66937    526.57833    60402.273   -1014463.1    16.339809    1021.6168 
   56000    448.57661    527.75578    62677.906   -1014360.6    16.010481    1025.3046 
   56500    440.69619    534.19547    67101.518   -1014245.7    21.606051    1034.3544 
   57000    437.52692     533.6072    70741.523     -1014131    16.664301    1041.6767 
   57500    444.27895     536.7236    71903.076   -1014020.6    22.440855    1049.9973 
   58000    449.02372    537.52875    70856.224   -1013898.7     21.52529    1049.1718 
   58500    452.24848    538.73145    67597.018   -1013773.4    17.250727    1044.5966 
   59000    448.96939    536.97398    64117.215   -1013653.3    14.398401    1041.0145 
   59500    449.13631    532.58906     63931.98     -1013550    22.573826    1040.9725 
   60000    444.86421    534.95731    65398.893   -1013443.5    17.382134     1041.587 
   60500    458.28082    536.93901    67622.089   -1013332.1      18.2944    1044.1188 
   61000    452.95698    538.22918    69601.119   -1013219.2    17.253221     1048.349 
   61500    448.07824    538.13559    71289.329   -1013125.5    20.379976    1057.6606 
   62000    449.26726    540.45961    71556.465     -1013032    18.378413    1058.1668 
   62500     447.7296    543.48236    69419.738   -1012927.5    22.723556    1054.2087 
   63000    453.34092    542.65369    66135.479   -1012826.8    18.280711    1047.4326 
   63500    452.38805      545.205    65232.973   -1012712.5    20.211897    1054.3453 
   64000    454.20967    544.23743    65143.907   -1012599.7    19.314964    1050.8487 
   64500    446.39308    551.22826    63988.108   -1012486.8    20.564474    1049.7996 
   65000    453.39191    559.19701    63153.492   -1012406.3    19.637339    1049.2686 
   65500    449.86299    571.03884    61066.374     -1012334    20.436181    1050.1026 
   66000    455.85722     585.6096    57801.654   -1012284.9    29.426113    1051.5656 
   66500    463.80109     607.3864    54929.121   -1012248.6    23.902933    1065.9189 
   67000    470.31395    624.95104    52862.282   -1012225.7    21.324308    1066.6276 
   67500    481.27818    635.67507    50990.093   -1012229.1    19.304206    1078.8053 
   68000    487.96349    643.85718    49019.421   -1012247.6    22.925903    1077.7518 
   68500    499.21976    648.89921    47462.905   -1012290.7    20.531344    1079.9506 
   69000    509.89381    647.99017    46452.312   -1012343.8    19.834765    1079.0515 
   69500    518.83252    649.08544    45403.444   -1012417.1    22.251387    1073.2874 
   70000    512.78181    643.11196    44420.961   -1012528.3     30.47198    1072.5752 
   70500    508.56466    643.86141     44169.36   -1012640.6    18.818847    1067.8168 
   71000    504.23971    636.35589    45029.705   -1012743.7    23.787222    1075.2018 
   71500    494.10412    637.14771    45141.891   -1012822.3    21.813501    1072.1579 
   72000    492.87984    636.24603    47170.017     -1012890    24.464365    1082.4965 
   72500    484.06073    633.79966    49298.322   -1012950.9    18.717445    1084.5232 
   73000    491.45759    625.83423    50887.519   -1013003.4    16.964274    1082.6714 
   73500    470.38902    629.38442    50505.989   -1013063.6    17.607838    1075.8176 
   74000    468.61945    621.08115    50283.742   -1013122.6    19.047903    1071.8855 
   74500    471.28885    619.62283    50487.028   -1013167.4    16.882409    1066.7985 
   75000     455.8344    609.28036    50237.283   -1013194.1    23.980536    1065.1638 
   75500    449.01812    605.39003    49615.041   -1013212.4    17.587805    1061.5751 
   76000    444.98698     602.9589    50387.448   -1013216.3    18.473935    1063.7019 
   76500    444.99702    605.42672    52844.617   -1013202.6    16.716436    1064.6598 
   77000    438.97738    603.21488    56377.891   -1013189.8    18.594566     1075.317 
   77500    426.53752    601.99043    57987.366   -1013152.4    20.039795    1076.8076 
   78000    436.54188    597.32957    59400.372   -1013100.1    20.776904    1079.6873 
   78500    430.07517    595.81529    58737.342   -1013048.1    16.634632     1074.724 
   79000    432.64743    593.21786    57170.438   -1012998.4    23.085213    1068.1764 
   79500    443.05641    589.02105    55773.123   -1012954.2     16.88321    1064.5693 
   80000    443.11589    584.63451    54575.698   -1012898.2    20.827845    1064.1966 
   80500    444.26421    586.70888    54816.275     -1012848    19.613027    1063.9829 
   81000    441.23429    587.25831    56956.296   -1012806.4    15.098974    1071.4571 
   81500    440.27929    588.30626    58973.325   -1012753.3    17.971629    1074.7666 
   82000    431.73312    587.33753    60838.461   -1012686.2    16.497837    1076.7322 
   82500    433.12391    582.03674     61965.78   -1012602.5    19.372855    1080.0705 
   83000     432.0879    583.75759    62574.454   -1012511.9    19.884752    1081.1019 
   83500    434.78703    581.10871    62424.423   -1012415.6    22.777751    1076.1907 
   84000    436.94349    583.32767    62184.169   -1012329.8    18.654705    1074.3808 
   84500    436.93391    579.12838    60616.916   -1012246.6    15.588793    1072.1417 
   85000    437.83818    575.10775    59691.895   -1012165.5    16.169393    1072.0571 
   85500     445.1385    575.65809    60326.132   -1012077.9    19.186875    1079.7522 
   86000    448.29116     578.7909    61182.272   -1011980.4    15.856613    1073.8961 
   86500    443.90298    577.52238    63983.491   -1011877.8    14.967606    1084.0993 
   87000    447.25819    581.14145    66792.641   -1011787.5    19.801029    1091.8055 
   87500    446.23934    579.84288     66853.71   -1011686.5    17.994404    1089.4224 
   88000    447.26422     578.5977    67307.735     -1011578    20.902879    1094.2714 
   88500    446.03827    575.96246    66019.912   -1011471.8    17.363105    1089.4742 
   89000    449.81601    575.31145    64454.384   -1011360.5    21.665424     1084.895 
   89500    440.69962    571.83892    63819.122   -1011256.8     17.70761    1087.7197 
   90000    441.74007     574.1686    63624.352   -1011152.1    19.303024    1082.9052 
   90500    439.82179    571.89789    65276.601   -1011038.9    20.298303    1083.9001 
   91000    437.71355    573.64206    67305.462   -1010924.2    18.280235    1090.6802 
   91500    447.08369    577.22625    69781.165   -1010804.8    19.885726    1098.9911 
   92000    447.25491    578.62751    70196.387   -1010683.3    19.770178    1100.4641 
   92500    451.99136    576.79475    70440.332     -1010564    20.347452    1103.6475 
   93000    447.43235     578.7744    70604.791   -1010434.8    16.246417    1107.1701 
   93500    447.28474    578.92967    68980.246   -1010314.6    20.334299    1105.7128 
   94000    456.72222    575.08816    68428.151     -1010195    22.799886    1103.0848 
   94500    448.26635    576.87598    67514.839   -1010074.6    16.782377    1100.3015 
   95000      451.987    578.95546    67499.436   -1009957.4    18.049125     1101.324 
   95500    454.80267    582.75432    68943.604     -1009848    15.588777    1103.0555 
   96000    452.70862    586.75196    70012.804   -1009746.6    17.431787    1107.9389 
   96500     471.8195    592.61373    70240.519   -1009643.5    20.949752    1114.1339 
   97000    471.86276    596.58341    70606.615   -1009544.7    19.066832    1117.6075 
   97500    472.21945    594.84946     70024.02   -1009459.2    17.716486    1121.1879 
   98000    474.53802    592.94757    68675.094   -1009368.8    19.409173    1118.4802 
   98500    465.89275    592.70045    68281.912   -1009286.1    21.319546    1115.9347 
   99000    461.61794     587.9314    68784.743   -1009193.5     25.91637      1114.91 
   99500    455.03028    589.04651    68890.524   -1009092.1    19.416608    1110.6303 
  100000    450.59576    586.87609    71737.105   -1008996.8    20.184657    1118.5245 
  100500    447.64287    587.45901    72443.391   -1008890.7    22.911251    1124.2054 
  101000    442.70329    589.11097    73032.794     -1008779    19.373766    1125.4479 
  101500    444.78955    588.55064     74095.64   -1008665.4    21.782253    1132.8764 
  102000    453.34179    593.46015    74377.517   -1008525.8    18.943932    1134.2343 
  102500    460.71059    592.55706    73553.279   -1008402.2     18.79488    1126.4472 
  103000    455.39416    587.19546    73689.554   -1008274.9    26.938819    1124.1683 
  103500    450.80695    586.86791      74373.1   -1008160.2    23.083978    1130.8831 
  104000    451.80023    586.88458    74239.792   -1008021.8    17.277107    1130.6605 
  104500    453.79394    591.16812    74535.324   -1007871.2    17.454738    1127.2294 
  105000     456.3127    588.76537    75708.076     -1007737    20.538636     1131.706 
  105500    457.64996    595.79802    75859.402   -1007588.6    21.108425     1132.171 
  106000    462.16746    595.04333    76117.694   -1007453.9    32.363721    1133.5987 
  106500    452.25606    597.28035    77264.936   -1007305.4    26.023439    1142.8609 
  107000    454.26076    595.01004    79047.941   -1007155.3    20.191497    1147.0414 
  107500    453.05117    594.85515    79051.581   -1006994.8    17.358551    1146.4206 
  108000    452.20958    595.47774    77854.769   -1006846.6    19.025705     1142.328 
  108500    452.87811    594.07698      77730.5   -1006705.8    21.158277    1139.0648 
  109000    452.85495     596.6645    78908.268   -1006564.6    17.579776    1143.2261 
  109500    453.23717    596.32495    78827.946   -1006417.4    16.716544    1143.8518 
  110000    461.53764     598.1829    77926.811   -1006265.8    20.867997    1143.0005 
  110500    466.91261    595.60376    79221.814   -1006113.3    20.803456    1152.1673 
  111000    457.23423    601.31654    81798.734     -1005952     16.57104    1155.1023 
  111500    455.12844    597.91713    82143.136   -1005795.7    18.718111    1156.6233 
  112000    449.15449    597.08873    81865.367   -1005623.5    18.777928    1152.0137 
  112500    453.63118     595.7658    81413.861   -1005465.8    22.103953    1145.9694 
  113000    456.07595    595.34726    81443.367   -1005295.4    26.057628    1148.9253 
  113500    456.62547    593.00637    80675.286   -1005129.9    16.840231    1143.4395 
  114000    451.73419     594.7598    81398.274   -1004935.1    24.214417    1148.2466 
  114500    451.18732     597.6274    82130.025   -1004745.1    18.293025    1151.7933 
  115000    455.18332    595.64856    82523.291   -1004556.6    20.777197    1154.1255 
  115500    449.22975    598.67491    82463.587   -1004374.9    17.251286    1153.8684 
  116000      450.522    600.25588     82550.73   -1004180.7    20.536373    1161.1674 
  116500    458.64265    601.86099    82793.166   -1003990.4    31.229133    1162.2438 
  117000    462.04359     609.4848    81776.967   -1003818.7    22.399675    1157.6393 
  117500    466.36348    615.14467    80753.714   -1003666.1     22.73674    1160.7093 
  118000    464.96739    623.86166    79752.518   -1003518.9    26.144716    1160.5151 
  118500    469.24512    627.50602    78046.919   -1003381.9    21.848139    1167.1569 
  119000    469.84477    635.72648    76100.427     -1003248    19.244728    1165.4564 
  119500    477.32312    638.44027    75202.762     -1003126    20.472386    1165.9478 
  120000     483.9561    641.02611    74293.806   -1003011.5    21.875609    1167.1013 
  120500    481.96996     645.6595    74520.875   -1002922.5    18.662012    1168.9056 
  121000    491.26801    647.57059    74614.977   -1002844.4    18.146642    1169.2744 
  121500     482.8304    651.05333    74921.192   -1002771.5    26.235642    1176.6401 
  122000    481.91801    651.78177    73920.872     -1002711    18.383801    1178.8201 
  122500    475.32893    652.68421    73186.529   -1002637.8    18.676258    1178.7464 
  123000    473.78743    654.44882    72988.332   -1002566.4    17.515605    1174.1466 
  123500    472.96426    653.74852    72852.143     -1002489    22.047315    1170.1321 
  124000    476.58803    658.97392    74282.791   -1002403.3    18.833475    1178.9614 
  124500    469.87481    661.19126    75142.911   -1002306.7    23.292225    1181.0361 
  125000    466.59742    656.54351    75040.108   -1002224.3    18.676345    1179.1679 
  125500     460.6836    659.12003    74712.204   -1002143.9    21.527864    1178.7282 
  126000    459.54242    661.97473    74590.318   -1002051.8     17.66197    1180.0762 
  126500    459.38537    658.26756    74310.765   -1001962.7    24.213229      1177.94 
  127000    461.54521    654.38247    73636.767   -1001858.9    22.562797    1174.9846 
  127500     461.8851    660.75841    73763.006   -1001764.3    26.138855    1178.1987 
  128000    452.54484    662.56869    74476.814   -1001666.6     19.59041    1177.9784 
  128500     449.1165    663.97202    75334.657   -1001567.9    17.374219    1186.0897 
  129000    443.11957    666.28417    76024.508   -1001461.8    27.788597     1187.234 
  129500    442.50704    668.15794    74830.218   -1001363.8    20.194467     1187.277 
  130000     444.5682    667.72944    74054.908   -1001269.5    19.737358    1183.6367 
  130500    449.40524    671.04888    73323.619   -1001169.8    17.875304    1186.9719 
  131000    453.41762    673.38719    74141.229   -1001077.6    27.790465    1188.4783 
  131500    456.25196    669.84188    74624.405   -1000973.3    21.414182     1190.588 
  132000    450.24364    675.14601    75756.151   -1000867.3    18.002331    1192.4031 
  132500     447.6671      668.705    75675.428   -1000766.8    20.065329    1194.4245 
  133000    452.10916    674.50398    74963.411   -1000659.3    19.918536    1188.9955 
  133500    449.71786    669.54349    74405.267     -1000559    21.910931    1185.6416 
  134000    450.79655    668.84357    74091.674   -1000456.8    24.547142     1186.947 
  134500    444.78444     672.2059    73957.063   -1000363.1    17.673786    1184.2533 
  135000    444.90381    676.13286    74175.679   -1000274.3     20.23654    1185.0614 
  135500    444.14849    670.73264    74521.882   -1000171.5    18.976181    1187.1755 
  136000    452.02287    669.08263    74120.698   -1000057.8    20.661293    1187.8871 
  136500    443.38588    670.37845    74319.343    -999936.3    19.481304    1184.8499 
  137000    438.45636    672.30232    74720.539   -999819.92    20.484814    1184.5691 
  137500    438.67295    669.52898    74444.275   -999689.69    24.127648    1184.0471 
  138000    444.54982    672.17583    73415.837   -999560.07    20.171604    1179.0204 
  138500    442.73389    672.76873      74268.5   -999418.15    21.169921    1184.8594 
  139000    449.79538    670.75226    74879.413    -999291.4    22.123643    1185.5892 
  139500    437.27741    670.00012    74272.298   -999177.93    18.961305    1186.4535 
  140000    441.08746    668.33475    73806.092   -999043.03    20.076015    1179.1863 
  140500    436.79966    661.23574    75006.473   -998908.52    19.864484    1187.6241 
  141000    431.70018    664.64176     74596.04   -998760.27     16.68708    1182.4554 
  141500    433.63001    667.14765    75138.394   -998620.21     18.39754    1181.8111 
  142000    430.37296     668.9517    74740.216   -998483.95    18.565886    1186.8402 
  142500    425.25869    670.57346    73856.602   -998347.56    23.226845    1184.0416 
  143000    432.05691    673.72775    72475.661   -998213.88    23.609877    1181.1237 
  143500    425.49379    679.64438    69259.038   -998081.76    22.865208     1172.978 
  144000    427.75799    685.17964    67293.756   -997958.03    21.891458    1172.9881 
  144500    428.36274    696.97744     65610.41   -997854.72    20.906808    1175.4362 
  145000    427.94794    712.90484    63600.532   -997749.06    26.637846    1181.9939 
  145500    439.32596    738.09795    61269.343   -997669.69    19.586355    1182.0121 
  146000    450.46714    765.54715    59295.823   -997632.27    21.164774    1191.3249 
  146500    457.10879    792.42751    56047.665   -997623.11    19.357119     1196.646 
  147000    472.79232    805.15708    52934.359   -997637.49    21.355932    1206.1574 
  147500     497.8798    819.04414    49770.504   -997688.57    24.542479    1207.0237 
  148000    516.99489    825.70344    48117.987   -997783.65    27.463921    1208.2365 
  148500    527.47605    833.36989    47027.289   -997905.32    24.906089    1211.4809 
  149000    541.62148    824.42008    45465.885   -998046.94    21.941757    1203.4115 
  149500    540.27642    820.26318    45718.051   -998200.45    22.576778    1204.7635 
  150000    533.69192    818.72802    45344.879   -998367.56    22.164598    1203.7364 
  150500    527.13353    822.31781    45661.026   -998534.43    18.479148    1200.6382 
  151000    521.89277    812.81671    45023.381   -998677.53    22.091188    1200.7051 
  151500    511.69069    809.02709    45820.402   -998814.42    19.018657    1203.1504 
  152000    502.04614    808.21102    45942.028   -998941.57    27.648337    1200.1669 
  152500    505.15885     807.6253     47585.15   -999063.01    19.958333    1198.7782 
  153000    479.41862     802.9269     47928.74   -999168.03     17.70347    1196.2481 
  153500    478.79661    798.96666    48711.429   -999260.58    25.100902    1194.3563 
  154000    467.91437    791.43433    47602.563   -999357.75    22.690866    1193.6363 
  154500    464.74623    785.41801    47557.533   -999432.53    18.670111    1190.3634 
  155000    456.35206    782.98585    47054.563   -999496.18    17.527025    1184.3628 
  155500    455.84146    778.65187    47047.738   -999538.65    18.112565     1179.186 
  156000    442.49923    774.87204    48162.437   -999566.19    19.399377    1184.7994 
  156500    441.55831    775.14999    49449.253   -999610.91    18.889396    1186.1755 
  157000     441.5117    767.70952    51075.461   -999645.87    19.655364    1188.0668 
  157500    446.05362    772.70324    52194.797    -999668.3    18.858463    1183.2138 
  158000    433.24114    767.80712    52925.166   -999694.31    21.226209    1188.5602 
  158500    431.68825     761.3247    52927.243   -999706.58    18.939132    1186.4433 
  159000    432.67789    756.68818    51837.543   -999699.61    18.092044      1181.05 
  159500    425.79913    755.51135     52325.07   -999687.49    20.638018    1183.3501 
  160000    432.25075    752.34707    52429.299   -999664.56     23.57359     1180.028 
  160500    427.62418      747.115    54078.135   -999639.97    20.707722    1180.8434 
  161000    430.52332    745.30642    54875.846   -999601.11    19.351341    1183.8403 
  161500    426.48945    743.64894    55879.816   -999571.61    22.660036    1185.6627 
  162000     428.5522    739.63351    56859.553   -999540.33    17.975841    1189.0733 
  162500    432.06826    746.13855    56540.143   -999507.77    22.942932    1180.1824 
  163000    432.66219    737.51759    56909.311   -999457.51    22.471354    1187.4018 
  163500    433.13078    739.04904    57317.659   -999420.96    17.514833    1183.6315 
  164000    434.88907    739.87171    56916.199   -999374.82    25.635679    1188.3035 
  164500    437.44416    738.74895    57130.366   -999327.23    19.777014    1188.1934 
  165000     432.8652    731.92673    57079.993    -999296.4    18.994268    1186.5573 
  165500    424.76082    735.12084    56990.278   -999251.83    21.262704    1182.9515 
  166000    431.57376    728.34244    58792.814   -999192.81    20.060296    1190.6867 
  166500    436.24124    725.97691    59644.432   -999121.03    20.283608    1189.2828 
  167000     431.7794    721.61288    60431.324   -999038.38    21.700824    1192.3631 
  167500    438.30751    729.33311    60711.416   -998952.13    16.403289     1194.781 
  168000    437.94464    718.97226    59409.553   -998862.92      22.6508    1186.6495 
  168500     429.5072    720.26065    59989.647   -998783.51    18.081772    1192.6518 
  169000    435.06693    721.05585    60727.866   -998699.99    21.917783     1191.765 
  169500    434.77757    721.20939    60694.955   -998620.03    23.410431    1185.3541 
  170000    434.99647    716.16188     61300.36   -998521.31    19.608638    1189.9105 
  170500    432.76865    721.26134    61544.802   -998429.61    20.429368    1187.5744 
  171000    433.37552    716.39514    61562.954   -998327.51    22.471984    1190.4665 
  171500    440.98785    718.07102     62814.59   -998222.74    17.555557    1196.6316 
  172000    448.56774    714.31458    62903.497    -998105.3    19.868222    1191.9582 
  172500    447.30732    712.23023    63652.281   -997998.43    26.096194    1199.4804 
  173000     452.7315    713.32654     63035.87   -997889.68    22.169416    1192.8958 
  173500     455.3929    713.37841    63852.086   -997783.75    19.531619    1195.7499 
  174000    461.90224    709.89815    65156.694   -997664.23    20.790512    1202.4633 
  174500    460.81312    713.23674    65382.575   -997553.46    17.675985    1195.8845 
  175000    455.43236     710.2907    66743.055   -997448.94    22.489334     1206.878 
  175500    455.47662    707.29389    67045.265   -997337.29    23.062294    1208.3724 
  176000    462.77153    710.02007    67128.693   -997210.76    19.736726    1210.0462 
  176500    464.33827    707.65275     67490.33   -997095.79    17.700146    1207.5646 
  177000    458.27149    706.11467     67754.74   -996980.85    20.887102    1204.4597 
  177500    462.77018     707.2303     68201.43   -996849.38    24.006911    1205.2801 
  178000    459.43627    702.70595     68140.79   -996723.95    17.148344    1203.5838 
  178500    458.27769    705.03276     67650.36   -996602.03    18.139491    1202.6246 
  179000    464.77839    706.79629    68459.702   -996479.75    21.086051    1204.0788 
  179500    469.78269    703.60292    69680.447   -996350.01    18.658959    1206.5404 
  180000    462.54262    706.16378    69613.967   -996211.13    22.755914    1210.8323 
  180500     466.5345    706.99861    68936.955   -996074.79    21.091766    1202.3384 
  181000    467.94307    707.32726    69057.947   -995945.09    32.018565    1203.9716 
  181500    466.08646    707.90083    69525.009   -995825.82    19.931158    1207.2618 
  182000    474.75041     710.1982    69872.183   -995707.71    22.107536    1212.6177 
  182500    466.40086      713.226    70198.842   -995606.34    19.510518    1213.5819 
  183000     469.2605    713.59191    69744.183   -995507.14    18.450756    1216.5748 
  183500    472.39466     713.8557     69222.45   -995401.51    18.196777    1215.6251 
  184000    465.68993     715.7659    68695.682   -995304.48    25.730513    1208.1175 
  184500    468.67751    716.75152     68112.18   -995196.78    19.013584    1211.9327 
  185000    462.78674    717.35087    68140.801   -995090.96    18.513689    1214.0791 
  185500    458.65918    721.10223    67839.201   -994969.92    19.556351     1217.427 
  186000    459.38156    724.53576    68306.979   -994873.04    19.546294    1217.6821 
  186500    460.70549    727.12192    68283.827   -994776.33    24.376377    1217.4694 
  187000    456.60542    731.99989    68634.314   -994684.29    20.097688    1221.7605 
  187500    460.54857    725.65297    68204.679   -994592.91     21.89129    1222.8931 
  188000    459.75074    732.50132    68265.534   -994499.82    19.163781    1219.2794 
  188500    449.44227    725.43251     67734.89   -994397.17    19.435799    1220.6248 
  189000    448.94031    727.43862    68748.735   -994296.39    20.953903    1220.1429 
  189500    437.67847    729.97254    69939.187   -994181.03    23.998851    1224.8469 
  190000    433.81939    731.81371    70513.747    -994058.1    18.055048    1226.2855 
  190500    438.89925    733.91242    69896.696    -993939.7     19.38004    1228.3015 
  191000    433.67415    729.66283    70047.893   -993823.47    21.320966    1225.0766 
  191500    442.01755    732.40421    69784.477    -993711.3    18.943831    1223.9515 
  192000    438.20712     734.7635     69604.45   -993598.17    17.528096    1225.5255 
  192500    436.22415    730.27638    69900.356   -993482.29    18.951179    1228.6598 
  193000    447.60996    732.46842    70738.133   -993370.65    17.814454    1231.0276 
  193500    451.05411    730.92067    70904.701   -993265.44    18.648655     1234.208 
  194000    449.50273    730.78804    72071.098    -993154.4    22.430201    1234.9707 
  194500     453.9238    729.55044    72050.218    -993050.4    23.897981    1232.7646 
  195000     447.9533    729.65353    71921.467   -992923.48    19.914343       1235.8 
  195500     458.1809    728.47364    71738.027   -992800.76    19.452296    1229.6029 
  196000     460.2273    728.23843    71528.512   -992669.01    22.284136     1234.835 
  196500    460.27611     729.1197    72001.487      -992541    22.214876    1235.2158 
  197000    449.30547    729.78093    72591.606   -992434.72    23.070083    1236.2381 
  197500    458.54372    728.96675    72527.739   -992315.55    20.301052     1236.286 
  198000    450.31407    727.83661    72833.915   -992190.71    19.782564    1232.5705 
  198500    446.43147    730.16344    73676.782   -992063.08    25.152005    1240.6007 
  199000    445.91782    729.57595    73088.851   -991931.91    30.098431    1238.4024 
  199500    451.84484    736.32563    73293.395   -991800.96    17.512633    1237.6717 
  200000    448.77006    735.78805    72791.127   -991686.76    23.064226     1239.232 
  200500    460.15883    734.82866    73539.117   -991566.87    16.454759    1241.0836 
  201000    467.68323    734.97006    72997.699   -991443.44    19.795063    1239.9673 
  201500    466.85463    736.98682    73232.475   -991337.65     26.48262    1247.0198 
  202000    470.12893    741.29963    73556.466   -991231.64    25.237842    1247.6633 
  202500    466.55747    739.64108     73519.88   -991126.31    18.883585    1242.0605 
  203000    465.49301    740.07152    74094.505   -991007.43    20.932752    1249.6282 
  203500    464.31004    739.98525    73764.775   -990883.97    18.685283    1246.0653 
  204000    461.23837    742.37882    73826.728   -990766.56    18.529122    1246.1162 
  204500     460.1066    737.92946     74212.35   -990662.69    25.347264    1248.0977 
  205000     462.4738    733.11642    74046.329   -990553.94    20.768388    1247.6431 
  205500    462.06646     734.1866    74240.058   -990428.47    18.057507    1244.6565 
  206000    462.40998    736.11831    74217.604   -990296.23    20.299082    1246.8465 
  206500    461.85505    734.30538    74128.121   -990165.95    25.410531    1247.9307 
  207000    460.72509    735.03538    74218.772   -990032.65    22.093922    1246.1037 
  207500    471.14112    736.68691    75354.909   -989885.78    21.830653    1252.4301 
  208000    471.46343    732.42619    75730.846   -989733.57    21.417562    1252.8564 
  208500    465.03773    735.18698    75835.631   -989593.78    19.499999     1251.641 
  209000    460.75196    738.31291    75439.708   -989449.89     20.09961    1251.7467 
  209500    472.41864    747.09044    74549.615   -989316.03    19.732895    1248.1531 
  210000    468.75089     747.2935    74267.239   -989190.62    23.410611    1259.5974 
  210500    472.86944     754.7333     73410.11      -989083    20.378728    1257.5558 
  211000     469.5346    755.56636    72386.877   -988983.46    22.900987    1260.2028 
  211500    473.33681    767.34006     72480.84    -988897.3    22.458341    1265.5387 
  212000    482.75927    775.96267    72121.533   -988831.27    23.851906    1261.9367 
  212500    493.29967    782.71977    71858.862   -988765.55    21.079144    1267.8229 
  213000     496.1216    788.19886    71405.192   -988727.01    21.609945    1268.4765 
  213500    501.65188    795.49164    70344.391   -988709.76    19.349163    1271.3632 
  214000    506.01752    791.97367    69123.273   -988690.66    21.375132    1269.1291 
  214500    501.48688    791.93674    67908.521   -988667.42    24.975912    1270.2255 
  215000    497.20878    793.42517    67451.683   -988646.88    19.349473    1271.6305 
  215500    500.82926    796.92207    67224.379   -988635.23    20.250123    1268.3019 
  216000    493.17501    800.37624    67703.018   -988618.48    23.096692    1273.2032 
  216500    490.06711    799.23247    68141.412   -988610.83    23.881602    1272.7773 
  217000    486.10447    801.16592    68227.345   -988596.69    19.389066    1275.2381 
  217500    484.44829    801.18041    68020.862   -988577.85    20.289408    1274.7691 
  218000    483.80044    806.77102    67789.178   -988546.52     21.07811    1271.6212 
  218500    475.46055    802.29214    67270.832   -988518.62    22.167768    1275.6608 
  219000    477.45955     808.4926    67223.135   -988501.55    19.692508    1274.6829 
  219500    473.78943    811.79075     67767.84   -988477.11    17.991457    1279.7121 
  220000    473.10585    814.74134    67236.599   -988462.64    21.207637     1275.495 
  220500    476.05121    806.90959    67782.624   -988431.44    22.025873    1274.9161 
  221000    466.44006    807.41846    67903.046   -988394.75    22.260949    1271.5032 
  221500    463.26042    805.77234    68078.627   -988352.83    25.619857    1272.6487 
  222000    470.86841    799.52087    68906.306   -988312.53    20.645295    1279.3732 
  222500    462.36044    804.15591    69064.877   -988267.91    20.594643    1273.5346 
  223000    462.54259    803.94178    69061.716   -988226.21    21.131266     1272.949 
  223500     462.5125    803.79411    69823.879   -988175.19    21.524924    1269.9299 
  224000    448.05524    804.18766    69555.449   -988112.24    20.662985    1270.9112 
  224500    455.70265    802.16184    69869.706   -988035.02     23.54739     1269.431 
  225000    452.01034     801.6898    70083.297   -987980.64    23.762084    1276.3035 
  225500     454.7548    803.30872    69961.814   -987910.47    20.082718    1273.5676 
  226000    449.91078    802.17882    70445.035   -987848.64    21.051502    1272.7389 
  226500    456.26562    797.23327    70178.928   -987783.99      19.7802    1276.0115 
  227000    457.33377    801.06286    71106.675   -987728.02    29.211935    1279.2063 
  227500    461.97293    800.22869    70602.985   -987676.81    23.697633    1274.9259 
  228000    453.78805    802.60622    70638.991   -987614.54    20.419683    1274.4329 
  228500     451.4408    798.78089     70116.28    -987548.3     24.98773    1273.9969 
  229000    452.58225    804.22042    70563.833   -987492.11    19.013739    1272.0389 
  229500    450.22772     801.2574    70700.524   -987427.22    20.028911    1277.0174 
  230000    446.09764    797.90952    69900.934    -987364.1    17.092774     1270.755 
  230500    448.53201    801.34643    70836.438   -987282.78    20.057209    1271.8138 
  231000    441.79894    803.28535     71565.09   -987196.98    19.358146    1268.4055 
  231500    434.38544    801.88574    72398.048   -987095.17    20.314243    1268.4004 
  232000    430.99884    798.33611    72939.641   -986995.41    18.610661    1280.6704 
  232500    440.46402    801.61944    72893.915   -986883.69    24.186529    1281.1817 
  233000    436.25388    802.03054    72754.681   -986776.77    24.366541    1275.7035 
  233500    434.85985    803.79696     72060.57   -986674.71    19.335805    1274.9156 
  234000    441.14058     800.6893    72062.704   -986564.78    18.709966    1270.2512 
  234500    438.71272    801.11968    72483.453   -986455.28     20.81585    1274.7942 
  235000    443.36451    804.94375    72358.036   -986339.66    19.480934    1274.8446 
  235500    448.28827    810.67912    72117.942   -986224.43    19.548335    1275.6384 
  236000    453.86867     809.7351    72104.313   -986128.92    17.821066    1278.4564 
  236500    460.14376    808.82896    71801.842   -986039.98    19.309708    1280.9989 
  237000    456.37096    808.35947    71970.559   -985948.56    19.680287    1276.1913 
  237500    459.89797    806.70929    72844.255   -985866.52    19.994537    1283.9703 
  238000    458.01492     808.3008    72767.647   -985770.72    26.848919    1285.1648 
  238500    454.45709    802.74872    72547.744   -985681.14    19.255066    1279.1399 
  239000    457.85273    801.60039    72152.751   -985573.76    22.759611    1283.3157 
  239500    451.16066    803.62983    72162.174   -985462.21     27.26658    1280.3206 
  240000    451.71461    806.50594    71618.206   -985361.91    17.747629    1278.3464 
  240500    450.55972    810.45216    71390.806   -985252.44     24.73168    1281.0183 
  241000    453.01698    807.79077    70919.423   -985159.14    19.835273    1281.3805 
  241500    444.16576    808.61783    71011.542   -985057.19    21.079648    1282.7226 
  242000    450.65786    815.07626    70227.411   -984946.28    21.044644    1280.4963 
  242500    442.21084    815.05272     70111.62   -984846.26    19.878993    1283.3687 
  243000    438.01148     819.2441    69920.834    -984752.3    21.677777     1283.192 
  243500    442.18832    817.17828    69753.934   -984648.09    23.994205    1282.0657 
  244000    442.49235    823.02811    68699.883   -984548.32    23.024972    1280.6332 
  244500     448.1349    823.04397     68062.79   -984451.33    18.597603    1281.9398 
  245000    445.40558    823.75914    67714.571    -984357.1    19.247744    1283.8329 
  245500    438.74053    830.92671    67235.757   -984250.35    19.584179    1282.8443 
  246000    439.01837    829.64564    67186.362   -984156.32    21.063337    1286.9807 
  246500    433.99501    837.35241    66666.321   -984059.32    20.869443    1288.2545 
  247000    444.08291    853.21771     66115.82   -983972.76     24.77762    1292.6833 
  247500     450.3979    857.12512    65165.079   -983884.77    20.288981    1292.0732 
  248000    452.21867     861.4952    63486.359   -983823.96    24.410913    1294.8546 
  248500    446.44325    866.72345    62210.621   -983784.75    20.621526    1290.7576 
  249000    461.12962    876.80959    60833.654   -983741.24    23.995455    1288.0584 
  249500    465.82864     886.8117    59615.346   -983713.24      18.2136    1287.1117 
  250000    461.38017    890.49744    58677.967   -983702.79    27.407733    1294.2416 
  250500    459.85073    901.63864    58033.619   -983726.84     27.49425    1298.4854 
  251000    462.23961    904.95466    56856.172   -983743.47    21.960481     1298.636 
  251500    467.11658     911.2931    55988.296   -983772.54    19.723512    1299.6895 
  252000    471.23396    907.81314    54973.978   -983813.15    32.232798    1295.2039 
  252500    475.75355    910.90064    54330.851   -983853.26    23.964774    1294.3732 
  253000    478.39293    912.94832    53728.551   -983897.87    20.588886     1298.282 
  253500    481.54586    911.37644    54125.917   -983952.94    18.895183    1303.8054 
  254000     473.8391    911.29115    54603.939   -984024.26    20.874355     1303.549 
  254500     471.9494    912.79481    54277.827   -984098.71    24.853565    1302.8286 
  255000    475.30688    910.52903    53643.359   -984159.12    24.533997    1299.6351 
  255500    472.88253    910.95295    54285.028   -984223.96    24.068603    1302.7283 
  256000    472.86997    908.25603    54122.753   -984286.82    18.669298    1299.4814 
  256500    471.66928    910.30929     54352.18    -984349.6    18.203583    1297.0832 
  257000    468.30625    906.40475    54261.237   -984428.09    26.412224    1299.9582 
  257500    466.40197    909.86547    54558.174   -984487.81     21.49499    1299.1138 
  258000     469.6546    907.77964    54308.231   -984550.05    28.148907    1299.5337 
  258500    468.35649    901.55209    53911.742   -984609.68    22.990841    1297.4325 
  259000    461.74543    896.59668     53518.18   -984650.18    22.062369    1287.5916 
  259500    456.65448    897.02621    54043.309    -984683.6    21.553288    1291.8615 
  260000    462.29942    898.17602    54173.836   -984711.16    23.334382    1291.2796 
  260500    463.15824    888.56639    54106.221   -984741.78     25.30691    1288.7725 
  261000     455.3722    890.42897    54393.455   -984776.67    23.928611    1291.3128 
  261500    457.21185     885.7697    54232.369    -984821.5    23.314041    1289.3434 
  262000    450.24297    884.46283    54370.773   -984847.74    20.643317    1286.6958 
  262500    449.65854    884.92032    54590.723   -984861.47    18.948033    1282.7591 
  263000    443.96016     878.4375    54874.516   -984880.78    27.293898    1289.3837 
  263500    446.52816    876.14829    55200.746   -984898.43    20.104529    1287.3205 
  264000    446.87364    877.69724    55889.277   -984908.62    17.319397    1287.7293 
  264500    449.27778    875.62247    55771.547   -984929.33    21.055583    1289.1962 
  265000    448.56916    873.97393    55255.915   -984940.89    26.061392     1283.022 
  265500    443.70173    870.43983    55637.164   -984945.28    19.388308    1285.6891 
  266000    449.50016    869.63568    55833.839   -984946.16    18.695814    1285.2235 
  266500    441.56961     868.5855    55469.079   -984935.92     20.73727    1278.5727 
  267000     431.0738    865.34692    56085.488   -984928.47    18.194865    1283.4588 
  267500    434.23452     864.1769    56308.233   -984934.01    17.312975    1282.7447 
  268000     443.3256    859.96948    56137.393   -984916.96     16.81466    1280.9179 
  268500    440.93903     854.4583    56296.503   -984889.32    17.506102    1283.6922 
  269000    447.05409    854.87691    55934.444   -984867.18     19.71468    1278.5841 
  269500    440.42815    855.12561    56093.216   -984845.87    18.907237    1279.6825 
  270000    446.99078    857.99224    56480.872   -984833.96    20.922296     1280.506 
  270500     454.1501    854.93416    57354.297   -984818.63    18.854868    1287.3843 
  271000    450.50508    855.56144    56743.369   -984800.75    20.177525    1277.9154 
  271500    446.19575    852.29047    57113.043   -984779.93    25.994994    1285.7739 
  272000    448.74542    852.38561    57800.876   -984756.07    23.089538    1285.5336 
  272500    447.28238     853.7571    57910.733   -984721.68    19.612435     1286.786 
  273000    443.89475     848.8256    57727.797   -984693.27    20.277638    1282.3189 
  273500    443.52672    848.46855    58032.886      -984660    20.613345    1284.4034 
  274000    440.09345    845.83935     57715.04   -984635.35    18.166823    1278.6852 
  274500    448.04447    844.34107    57962.837    -984610.7     22.97901    1283.0307 
  275000    441.93825    836.97925    58177.116   -984585.87    20.181513    1282.5129 
  275500    444.07043    843.24493    58617.731   -984535.05    19.295112     1276.736 
  276000    437.51894    841.12636    59171.907   -984480.38    18.828433    1277.1658 
  276500     439.9051    837.46241    59678.484   -984413.87      19.9086    1283.2657 
  277000    432.46292    832.10537    59744.733   -984353.41    18.128416    1283.0133 
  277500    434.93444    834.44342    60126.349   -984298.75    18.478407    1287.7871 
  278000    435.99126    836.49759     60327.26   -984238.27    21.498263    1281.7534 
  278500    446.90136    833.39857    60924.821   -984177.39    19.491345    1288.6353 
  279000    450.76775    837.21305    60820.496   -984119.79     18.94509    1286.1359 
  279500    450.25073     838.0851    61232.686   -984072.31     23.93802    1294.8613 
  280000    459.56027    841.75933    61355.423    -984025.7     19.89417    1291.0497 
  280500    455.94682    842.26668    62276.304   -983997.37    23.950682    1304.4944 
  281000    461.53931    848.20468    61530.754   -983983.86    18.862221    1297.2964 
  281500    463.14543    840.73677    61755.941    -983945.5    22.504048    1300.6446 
  282000    453.48561    838.09743    61488.829    -983914.3    21.852054    1299.0082 
  282500    452.66374    833.33807    61542.457   -983883.28    21.758173    1298.5199 
  283000    452.43323    835.05861     61581.45   -983845.58    17.374779    1295.1124 
  283500    458.55657    832.61605     62691.64   -983811.38    18.813954    1297.0628 
  284000    452.67324     835.7668     63621.64   -983758.38    20.085476    1301.4478 
  284500    450.67114    832.07375    63337.559   -983697.49    18.807132    1294.7433 
  285000    449.30382    826.05507    63745.983   -983628.83    22.643695    1296.9107 
  285500    445.55315    826.08353    63765.786   -983552.08    21.618165     1295.759 
  286000    442.81287    826.32561    64347.161   -983465.55    22.627068     1299.445 
  286500     443.9855    824.60151    64230.095   -983375.51     19.80981    1291.7826 
  287000    444.99774    823.14447    64640.651      -983286    19.284035    1297.9617 
  287500    452.09508    824.12752    64586.339   -983200.58    18.973022    1298.2902 
  288000    448.25129    826.58333    64791.182   -983122.26    22.765406    1296.4539 
  288500    449.05457    823.70621    65779.385   -983033.84    18.984819     1300.683 
  289000    449.96557    826.91522    66405.794   -982950.89    19.602786    1305.4734 
  289500    449.03698    829.02436     65571.09    -982876.5    22.326753    1300.2691 
  290000     447.2933    826.61272    65823.066   -982793.37    21.052537    1301.8312 
  290500    450.45921    830.75735    66022.684   -982701.38    22.038746    1304.2172 
  291000    452.71368    821.98913    65501.455   -982609.15    33.187815    1302.6025 
  291500    449.07649    825.69124    66074.846   -982499.99    25.843039    1299.9427 
  292000    448.55434    831.71953    66291.864   -982407.29    19.094557    1299.2538 
  292500    450.16588    833.03996    66055.356   -982321.94     26.43953    1302.9268 
  293000      452.626    832.32255    65692.821   -982240.29    19.091524    1300.4171 
  293500    459.16253    834.51332    65442.989   -982144.67    21.433538    1302.7244 
  294000    457.20362    830.18322    65882.918   -982065.51    19.387914    1307.5684 
  294500    461.45516    831.33748    65744.341   -981972.61    20.117982    1307.0171 
  295000    458.25433    832.38253    65818.216   -981878.69     19.85924    1306.8913 
  295500    456.81358    833.74422    66036.561   -981788.13    22.297026    1309.8883 
  296000    459.89608    833.46732    66091.462   -981689.71    19.030348    1310.1276 
  296500    468.97662    835.90657     66791.22   -981587.99    18.997919    1309.0009 
  297000    452.94551    834.51233    66715.499    -981486.5    24.218092    1308.6746 
  297500     462.9311    837.41096    66564.136   -981383.84    24.384927    1307.8743 
  298000    468.77186    831.07281    66531.664   -981276.49    25.551535    1305.4662 
  298500    466.93439    839.35661    67198.659   -981176.16     18.55473    1313.1152 
  299000    466.73441    832.18533      66940.6   -981090.05    25.099238    1313.9738 
  299500    460.55464    834.11057    67402.467   -980980.71     21.71237    1312.8447 
  300000    453.85705    838.90304    67222.717   -980866.57    19.529645    1311.6375 
  300500    465.09595    839.85483    67530.643   -980757.28    28.973368    1309.0686 
  301000    460.25072    839.00615    67954.862   -980634.59    20.870654    1311.2274 
  301500    468.24953    838.70523     67827.13   -980529.39    21.928798    1313.4711 
  302000    465.30079    839.19103    68024.566   -980430.41    24.669036    1314.4682 
  302500    459.35981    835.42771     68342.43   -980324.82    20.143828    1317.4918 
  303000    467.02065    845.81213    68494.553   -980219.99    20.122513     1315.205 
  303500    466.87944    844.41409    68430.962    -980119.5    35.585991    1313.9282 
  304000    467.67806    848.62421    68336.465   -980019.37    20.323831    1314.1691 
  304500    472.66677    843.60388    69532.374   -979922.11    22.208527    1320.5447 
  305000    465.42011    840.15159    69196.711   -979824.57    20.520737    1316.9908 
  305500    468.25288    846.41343    69945.648   -979731.79    19.209151     1318.503 
  306000    461.61679    844.11212     69448.37   -979629.62    21.641496    1320.9807 
  306500    460.10818    841.58822    69790.393   -979511.61    23.652093      1319.19 
  307000    457.46993    845.37492    70015.803   -979393.11    26.555017    1318.7114 
  307500    453.08327      838.213    70466.256   -979269.32    21.223378     1320.062 
  308000    451.32029    842.12528    70870.634   -979133.84    20.249528    1315.5322 
  308500    441.11011    838.81697    71106.415   -978998.74    20.232465    1324.0273 
  309000     443.0212    842.90201    71891.541   -978872.19    25.929373    1324.5923 
  309500    449.97574    840.42409    70963.305    -978744.3    20.251303    1321.7565 
  310000    449.09616    846.89002    70730.566   -978603.13    20.372458    1324.5632 
  310500     446.1881    850.61337    70924.392   -978474.69    24.844384    1324.1643 
  311000    451.84057    850.61372    70853.917   -978372.77    26.673143     1326.764 
  311500    453.33955     850.4314    71194.244   -978263.49    22.908949     1329.047 
  312000    450.94434     861.0315    71972.295   -978151.32    24.187352    1332.8565 
  312500    458.95572    855.46529    72254.387   -978036.08    23.516622     1336.213 
  313000    461.60923    861.67116    71972.024   -977932.81     18.09358    1335.6773 
  313500    456.87449    860.53297    72178.824   -977828.24    22.911834    1338.1376 
  314000    451.72972    861.11358    72637.797   -977717.47     23.69961    1336.7629 
  314500    454.31551    860.06864      72383.5   -977604.91    22.087419    1335.8675 
  315000    463.24523    860.67851    72949.759   -977490.86     21.97436    1339.3901 
  315500    469.84153    866.67346    73090.831   -977391.32    21.467281    1342.9136 
  316000    467.79363     865.4237    72775.488    -977296.9    18.596385    1344.2812 
  316500    480.24226    876.64349    73025.386   -977210.98    20.145721    1351.0764 
  317000    476.11369    877.89212    72704.373   -977135.44    19.518201    1345.5213 
  317500     478.0118    878.56945    72526.319   -977050.38    22.797673    1352.8855 
  318000    483.11036    878.51972     72430.03   -976974.24    19.724089    1348.4781 
  318500    478.66606    881.76947    73053.866    -976908.3    22.427919    1355.6077 
  319000    483.20988    881.91164    72950.114    -976840.3    21.702669     1354.043 
  319500    483.75984    886.20033    73292.262   -976784.03    23.153282    1358.6179 
  320000    479.97008    887.63894    72872.489   -976735.45     34.40456    1353.5149 
  320500    474.94849    890.98372    72996.578   -976700.86    25.948638      1356.19 
  321000    482.00161    889.76011    72769.942   -976647.67    19.504191    1356.6219 
  321500     480.4265    891.40407    72965.675   -976591.37    19.613532    1353.4795 
  322000    473.22329    897.59881    73354.413   -976541.66    23.519428    1360.8548 
  322500    474.77304     889.1587    74211.438   -976479.14    21.603649     1360.712 
  323000    476.47972    892.23161    75505.737   -976415.33    21.882455    1365.4618 
  323500    480.90634     885.7974    75628.243   -976344.26    20.258813    1366.4498 
  324000    471.33484    885.15411    75795.224   -976276.57    21.073404    1360.2359 
  324500    473.19718    883.85761    76744.345   -976206.55    24.092461    1362.6677 
  325000    465.57341    883.36114    77826.222   -976123.29    21.995049    1363.1251 
  325500    468.55682    881.91349    78648.099   -976038.54    17.814431    1365.2601 
  326000     467.9312    883.64206    78930.606   -975945.53    19.996773      1359.86 
  326500    460.67139    881.78989    79628.811   -975837.87    20.719709      1364.86 
  327000    459.63056     882.1473      80343.1   -975727.47     19.66443    1367.2077 
  327500    452.87063    873.44619    80996.159    -975610.4     18.65844    1362.3543 
  328000    456.66094    875.71531    81622.153   -975477.74    24.946328    1363.1985 
  328500    459.22692    871.22688    82721.665   -975334.52    17.947421    1359.3806 
  329000    451.14798    871.28464    83215.007   -975184.53    23.471192    1360.1931 
  329500    450.02444    874.92519    83796.882   -975021.71     25.10064    1357.1383 
  330000    447.50554     872.2383    84000.929   -974851.58    20.639194    1354.3355 
  330500    457.72725    870.54628    84540.205   -974680.89    20.680389    1356.1737 
  331000    455.39564    871.01081    84945.638   -974511.67    21.183941    1356.1408 
  331500    451.79885    872.52699    85041.177   -974344.32    21.701116    1354.6734 
  332000    454.30295    873.75903    84825.028   -974194.83    22.208878    1356.0963 
  332500     454.3473    870.09563    84108.995   -974045.44    20.060752    1351.1194 
  333000    463.31305     874.8891    83757.836   -973890.21    22.217068    1344.4713 
  333500    458.62522    876.68087    84863.432   -973747.64    19.438892    1355.3402 
  334000    471.18794     872.8358     83699.03   -973608.97    28.490438     1346.667 
  334500    473.98421     877.3377    82807.088   -973485.67    22.786779    1351.7939 
  335000    472.66509    878.71799    82216.162   -973360.95    22.467878    1351.0066 
  335500    470.34343    896.61295    80602.388    -973248.8    21.949146    1354.1486 
  336000    480.28069    911.60015     79935.95   -973159.86    25.131254    1359.1534 
  336500    479.53668    929.59323    77620.064   -973087.27    22.188673    1365.6368 
  337000     482.6291     940.1668    75855.986   -973046.38    26.463151    1369.0575 
  337500    498.79257    950.99849    74315.283   -973019.03    22.383312    1373.0084 
  338000    510.27231    968.38026    72571.317   -973025.76     29.57608    1378.9954 
  338500    526.46618    978.21023    71059.836   -973049.57    19.864043    1374.6222 
  339000     526.1441    979.90252    70258.746   -973102.02    24.298661     1374.404 
  339500    529.92794    986.00291    69233.573   -973166.18    22.982974    1370.1314 
  340000    539.03929    972.39387    68439.321   -973220.73     26.70358     1371.835 
  340500    539.04718     975.7266    67454.956   -973296.64    23.975306    1369.2448 
  341000    529.28731    974.58267    66863.081   -973377.76    20.533304    1368.0905 
  341500    527.23534    979.58028    67955.888   -973469.57    20.794413    1365.3265 
  342000    518.22573    970.33088    68089.171    -973530.5    19.239301    1366.2666 
  342500     519.4613      965.681    68054.438   -973587.55    20.463288    1362.9846 
  343000    512.11871    967.28411    68715.656   -973645.86    30.222137    1359.2871 
  343500    496.10777    962.94937    69283.757   -973697.64    19.439514    1365.5887 
  344000     498.7068    965.42936    71333.484   -973735.68    22.794893    1369.7265 
  344500    497.50319    960.98936    71702.746    -973775.1    20.325386    1374.3855 
  345000    496.78506    963.06857     71854.19    -973794.1    23.747419    1366.9324 
  345500    486.12334    967.87984    71559.602   -973817.76    20.315252    1369.8634 
  346000    488.31304    965.59498    71331.522   -973852.58    22.609253    1372.0087 
  346500    488.85712    960.97295     71800.85   -973884.31    18.957382    1370.6227 
  347000    491.31637    961.20928    72027.726   -973897.28    23.494647     1368.758 
  347500     477.1507    956.73277    72490.132   -973904.46    24.338495    1367.1322 
  348000    468.65469    956.20189    71232.945   -973910.67    19.188285    1364.4907 
  348500    467.99658    958.23925    71761.434   -973908.02    18.106776    1365.2968 
  349000    468.07341    951.48315    71138.425   -973883.61    20.507096    1358.2508 
  349500    468.57695    948.29199    71611.149   -973846.74     18.70395    1357.8144 
  350000      455.854     942.6139    73252.777   -973810.09    18.056509    1364.1325 
  350500    466.68681    946.08221    73603.564    -973769.5    28.061485    1361.1145 
  351000    449.00314    941.66662    73915.025   -973723.73    30.283946    1362.0314 
  351500    446.01024    944.17136    73945.397    -973662.6    24.751549    1364.8065 
  352000    459.46947    940.78557    73497.296   -973593.59    19.400954    1358.5688 
  352500    462.41395    943.89958     73504.74   -973546.27    19.275646    1358.2111 
  353000    467.18929    938.98033    75220.432   -973489.66    18.698957    1364.7038 
  353500     466.9675    942.49498    74899.538   -973426.82    23.607773    1364.5671 
  354000    472.66032    936.10883    75500.053   -973377.81    22.429449    1372.8526 
  354500    476.27479    934.36216    75522.204   -973324.81    21.074713    1366.1195 
  355000    479.78386    928.88343     74995.56   -973276.19    20.389591     1363.555 
  355500    477.11482    926.58404    75658.928   -973217.13     28.82268    1364.6654 
  356000    474.56261    926.85229    77087.891    -973139.6    18.894203    1366.2096 
  356500    476.88877    928.41914    77233.375    -973050.5    17.770944    1356.6891 
  357000    468.29656    924.12297     78102.98   -972957.59    17.351849    1365.5161 
  357500    463.48604    917.84535    78573.679   -972850.75    21.886794    1367.3367 
  358000    460.30284    917.77784    79003.234   -972739.18    19.947646    1364.5962 
  358500     452.5046    907.35199        80201   -972608.14    20.390209    1364.9591 
  359000    450.92517    909.23378    81296.942   -972471.86    18.471306    1367.3799 
  359500    453.72951    911.55938     80405.16   -972330.67    20.190166    1361.5941 
  360000    455.85612    903.81431    81520.292   -972184.75    19.809496    1365.0054 
  360500    458.81523    908.98989    80926.535   -972045.01    22.848732    1363.5968 
  361000    460.94329     903.0741    81692.902   -971904.31    21.327459    1364.2397 
  361500    453.29557    904.12341    81721.663   -971765.16    21.191192    1363.8037 
  362000     454.0809    903.74517    82178.126    -971628.2    19.144156    1363.5046 
  362500    459.84861    904.72079    81745.283   -971497.86     33.92796    1362.6519 
  363000    471.58011    903.91727    82175.488   -971355.72    19.740842    1365.5888 
  363500    478.93351    909.89276    82359.064    -971207.5    25.798917    1364.5814 
  364000    471.73849    906.58103    81740.191   -971063.97    20.677861     1370.042 
  364500    489.02772    912.60436    81424.791   -970943.84    22.035488     1370.688 
  365000    491.63081    912.79379    81790.531   -970839.45    20.998616    1370.3201 
  365500    481.60249    913.65648    82367.937   -970730.51    24.916028    1375.3831 
  366000    494.10474    910.04172    80992.222   -970624.74    26.327088    1369.0358 
  366500    498.83446    903.65133    81796.785   -970514.67    22.049599    1370.1822 
  367000    483.61441    902.97512    81864.118   -970402.75    28.099764    1373.9372 
  367500    482.62263    905.94915    81433.542   -970285.84    20.389921    1368.6662 
  368000    480.72673     903.0396    81073.613   -970156.26     20.03129    1365.3409 
  368500    481.55022    901.89255    81289.053   -970029.35     20.97242    1369.2492 
  369000    481.84873    895.20014    80803.374   -969895.13    23.097967    1367.9835 
  369500    481.31963    900.43407    80711.535    -969772.8     19.79927    1363.1452 
  370000    473.12821    900.88042    80536.308   -969639.22    22.594731    1361.6448 
  370500    472.55606    901.62575    79800.027    -969499.3    27.228713    1358.3521 
  371000    473.04052    899.40414    79897.111   -969356.94    22.462137    1360.6823 
  371500     479.4069    907.69043    79025.277   -969216.61    28.480369    1363.2242 
  372000    472.75629    910.20091    78530.057   -969081.17    26.408312    1366.0373 
  372500    474.67817    925.44689    77206.219   -968954.95    24.944457     1364.647 
  373000    475.15278    941.23288    75854.999   -968846.13    20.971059    1367.6866 
  373500    486.95872     952.0286    73904.497   -968763.36    20.746181    1365.6319 
  374000     488.4972    958.58086    72139.821   -968679.84    26.341671    1370.8275 
  374500    500.79703    977.99226    70918.425   -968626.61    24.372844    1375.1463 
  375000     503.7885    984.93698    69445.249   -968615.02    27.187548    1374.2857 
  375500    509.77004    993.89897    68599.678   -968621.57    23.998068     1377.389 
  376000    511.66193    995.46431    67383.491   -968646.77    20.098385    1380.5771 
  376500      513.384    1001.8717    66069.684   -968656.73     25.85005    1380.1745 
  377000    529.35205     999.6492    64527.461    -968687.4    21.794585    1373.4857 
  377500    523.62887    1005.3411    64172.387   -968743.95    22.430421    1374.4764 
  378000    529.75447    1015.9238     63929.26   -968812.38    21.993335    1373.2637 
  378500    538.60175     1017.616    62786.153   -968884.43    20.509665    1370.1925 
  379000    524.04214    1012.4409    62618.704   -968959.97    19.983358    1378.2377 
  379500    526.70051    1019.4837    61357.749   -969048.76    20.541589    1367.7989 
  380000    526.58188    1011.2807    61327.157   -969129.61    29.571788    1370.2002 
  380500    508.90436    1007.8709    62365.822   -969205.25    25.605889    1378.2104 
  381000    511.04425    1015.2612    62350.201   -969257.85    20.253925    1367.0099 
  381500    504.48412    1003.1974    62800.755   -969320.38    22.107185    1374.3123 
  382000    499.71483     1008.368     62506.35    -969381.4    17.876652     1368.997 
  382500    484.71068    1004.2005     62372.75   -969439.53    18.402195    1369.0566 
  383000    499.67766    1001.6643    63680.935   -969491.48    24.538581    1368.4453 
  383500    489.80186    1003.2588    63692.472   -969537.04    19.516278    1372.4528 
  384000    490.57307    997.01325    63940.911   -969591.92    24.196826     1373.593 
  384500    494.22327    992.73268    64361.864   -969642.54    20.321248    1368.9673 
  385000    483.35942    985.63132    65606.618   -969686.86    24.167609    1375.2784 
  385500    479.42755    983.35648    65960.908   -969717.09     21.82823    1368.1071 
  386000    481.40584    986.79596    66587.857   -969743.62    23.283935    1372.1988 
  386500    475.94196    979.39424    66223.012   -969748.22    24.890544    1368.6551 
  387000    475.12064    971.30571    66814.559   -969750.81    23.939856    1370.6218 
  387500    470.32096    967.94091    67098.912   -969747.48    21.647412    1367.4956 
  388000    473.96431    971.47148    67316.043   -969722.62     30.82079    1360.6191 
  388500    467.50666    964.35214    67926.182   -969706.61    21.059943    1368.5985 
  389000    464.11911    962.76836    68331.423   -969684.09    24.528445    1370.5205 
  389500    461.82829    958.61981    68714.511   -969644.72    20.784723    1371.2499 
  390000    463.51742    957.94937    68453.158   -969614.04      19.1877    1361.4534 
  390500     465.7463    955.30259    68982.348   -969564.28    20.957004    1364.5999 
  391000     461.4184    951.99704    69305.414   -969507.72    18.454344    1364.4607 
  391500    456.78929     948.6227    69641.564   -969458.73    25.026828    1360.6249 
  392000    450.69818    942.75865    69505.369   -969407.06    26.002006    1358.1019 
  392500    463.06187    950.50921    70669.256   -969324.34    25.525901    1363.8658 
  393000    457.52458    946.20011    70289.587   -969238.08    25.641702    1364.2667 
  393500    459.53544    948.32458    70283.591   -969154.18    16.834096    1363.5175 
  394000    466.47867    941.00171    70242.298   -969079.56    23.474173    1360.7836 
  394500    454.89384    938.05812    70657.935   -969009.68    24.891091    1360.8093 
  395000    452.89683    936.64619    70818.169   -968932.55    22.259183    1361.7694 
  395500    461.76862    944.50888    70531.895   -968850.38    22.227878    1359.3924 
  396000    449.49563    942.60756    71072.102   -968776.31    23.303465    1359.9797 
  396500    455.97856    942.45367    71365.174   -968690.67    24.594762    1363.8441 
  397000    458.21523    939.11926    71219.287   -968616.85    18.389554    1363.6915 
  397500    454.51399    935.18988    71423.015   -968519.12    29.239078    1365.6138 
  398000    467.82193    944.20912    71201.557   -968430.21    20.548685     1361.348 
  398500    462.57874    934.83205    71412.498   -968333.99    22.166677    1365.5944 
  399000    474.61781    934.75556    71466.898   -968250.59    28.971349    1363.5309 
  399500    467.79645    943.37982    71714.106   -968173.29    21.924801    1365.7752 
  400000    477.30031    949.83514    71557.105   -968105.24    21.765743    1366.4718 
Loop time of 122775 on 1 procs for 400000 steps with 163956 atoms

Pair  time (%) = 46709.9 (38.0451)
Neigh time (%) = 626.356 (0.510165)
Comm  time (%) = 1078.39 (0.878346)
Outpt time (%) = 731.079 (0.595461)
Other time (%) = 73629.4 (59.9709)

Nlocal:    163956 ave 163956 max 163956 min
Histogram: 1 0 0 0 0 0 0 0 0 0
Nghost:    42123 ave 42123 max 42123 min
Histogram: 1 0 0 0 0 0 0 0 0 0
Neighs:    0 ave 0 max 0 min
Histogram: 1 0 0 0 0 0 0 0 0 0
FullNghs:  7.92696e+06 ave 7.92696e+06 max 7.92696e+06 min
Histogram: 1 0 0 0 0 0 0 0 0 0

Total # of neighbors = 7926964
Ave neighs/atom = 48.3481
Neighbor list builds = 9017
Dangerous builds = 0

#run 188000



######################################
# SIMULATION DONE
print "All done"
All done
