LAMMPS (12 Mar 2014)
USER-CUDA mode is enabled (../lammps.cpp:445)
log rerun.log
