
package cuda gpu/node 1 0
#package omp 2 force/neigh

read_restart cut_sic.pre_cut.restart
  orthogonal box = (-0.033967 -0.00821494 0) to (323.135 82.1412 78.6006)
  1 by 1 by 1 MPI processor grid
  163956 atoms


# ------------------------ FORCE FIELDS ------------------------------

pair_style	tersoff
pair_coeff	* * SiC_Erhart-Albe.tersoff C Si C


mass 1 12 #.0107 # C (g/mol)
mass 2 28 #.0855 # Si (g/mol)
mass 3 12 #.0107 # C (g/mol)
balance dynamic xy 50 1.05
  iteration count = 1
  initial/final max atoms/proc = 163956 163956
  initial/final imbalance factor = 1 1
  x cuts: 0 1
  y cuts: 0 1
  z cuts: 0 1
fix 13 all property/atom mol
Resetting per-atom state of Fix 13 Style property/atom from restart file info

compute	           s all stress/atom NULL
compute	           k all ke/atom
compute 	vor all voronoi/atom

dump		1 all custom 500 dump.rerun.cut_sic.* id type mol x y z vx vy vz  c_k  c_s[1] c_s[2] c_s[3]  c_s[4] c_s[5] c_s[6] c_vor[1]


label loop
variable i loop 801
variable j equal ($i-1)*500
variable j equal (1-1)*500
rerun dump.cutsic.$j.lammpstrj dump x y z box yes scaled no format native
rerun dump.cutsic.0.lammpstrj dump x y z box yes scaled no format native
Memory usage per processor = 103.568 Mbytes
Step Temp E_pair E_mol TotEng Press Volume 
       0     327.4678   -1036649.5            0   -1029709.5   -2575.0096    2086685.2 
Loop time of 11.9808 on 1 procs for 1 steps with 163956 atoms

Pair  time (%) = 0 (0)
Neigh time (%) = 0 (0)
Comm  time (%) = 0 (0)
Outpt time (%) = 0 (0)
Other time (%) = 11.9808 (100)

Nlocal:    163956 ave 163956 max 163956 min
Histogram: 1 0 0 0 0 0 0 0 0 0
Nghost:    42512 ave 42512 max 42512 min
Histogram: 1 0 0 0 0 0 0 0 0 0
Neighs:    0 ave 0 max 0 min
Histogram: 1 0 0 0 0 0 0 0 0 0
FullNghs:  8.00159e+06 ave 8.00159e+06 max 8.00159e+06 min
Histogram: 1 0 0 0 0 0 0 0 0 0

Total # of neighbors = 8001592
Ave neighs/atom = 48.8033
Neighbor list builds = 0
Dangerous builds = 0
next i
jump SELF loop
variable i loop 801
variable j equal ($i-1)*500
variable j equal (2-1)*500
rerun dump.cutsic.$j.lammpstrj dump x y z box yes scaled no format native
rerun dump.cutsic.500.lammpstrj dump x y z box yes scaled no format native
Memory usage per processor = 103.568 Mbytes
Step Temp E_pair E_mol TotEng Press Volume 
     500     327.4678   -1036647.2            0   -1029707.3    206.68796    2085070.6 
Loop time of 12.2017 on 1 procs for 1 steps with 163956 atoms

Pair  time (%) = 0 (0)
Neigh time (%) = 0 (0)
Comm  time (%) = 0 (0)
Outpt time (%) = 0 (0)
Other time (%) = 12.2017 (100)

Nlocal:    163956 ave 163956 max 163956 min
Histogram: 1 0 0 0 0 0 0 0 0 0
Nghost:    42713 ave 42713 max 42713 min
Histogram: 1 0 0 0 0 0 0 0 0 0
Neighs:    0 ave 0 max 0 min
Histogram: 1 0 0 0 0 0 0 0 0 0
FullNghs:  8.00286e+06 ave 8.00286e+06 max 8.00286e+06 min
Histogram: 1 0 0 0 0 0 0 0 0 0

Total # of neighbors = 8002864
Ave neighs/atom = 48.811
Neighbor list builds = 0
Dangerous builds = 0
next i
jump SELF loop
variable i loop 801
variable j equal ($i-1)*500
variable j equal (3-1)*500
rerun dump.cutsic.$j.lammpstrj dump x y z box yes scaled no format native
rerun dump.cutsic.1000.lammpstrj dump x y z box yes scaled no format native
Memory usage per processor = 103.568 Mbytes
Step Temp E_pair E_mol TotEng Press Volume 
    1000     327.4678   -1036660.4            0   -1029720.5    2041.8432      2083456 
Loop time of 10.6029 on 1 procs for 1 steps with 163956 atoms

Pair  time (%) = 0 (0)
Neigh time (%) = 0 (0)
Comm  time (%) = 0 (0)
Outpt time (%) = 0 (0)
Other time (%) = 10.6029 (100)

Nlocal:    163956 ave 163956 max 163956 min
Histogram: 1 0 0 0 0 0 0 0 0 0
Nghost:    42377 ave 42377 max 42377 min
Histogram: 1 0 0 0 0 0 0 0 0 0
Neighs:    0 ave 0 max 0 min
Histogram: 1 0 0 0 0 0 0 0 0 0
FullNghs:  8.00376e+06 ave 8.00376e+06 max 8.00376e+06 min
Histogram: 1 0 0 0 0 0 0 0 0 0

Total # of neighbors = 8003764
Ave neighs/atom = 48.8165
Neighbor list builds = 0
Dangerous builds = 0
next i
jump SELF loop
variable i loop 801
variable j equal ($i-1)*500
variable j equal (4-1)*500
rerun dump.cutsic.$j.lammpstrj dump x y z box yes scaled no format native
rerun dump.cutsic.1500.lammpstrj dump x y z box yes scaled no format native
Memory usage per processor = 103.568 Mbytes
Step Temp E_pair E_mol TotEng Press Volume 
    1500     327.4678   -1036666.5            0   -1029726.6    4147.3554    2081841.5 
Loop time of 11.0918 on 1 procs for 1 steps with 163956 atoms

Pair  time (%) = 0 (0)
Neigh time (%) = 0 (0)
Comm  time (%) = 0 (0)
Outpt time (%) = 0 (0)
Other time (%) = 11.0918 (100)

Nlocal:    163956 ave 163956 max 163956 min
Histogram: 1 0 0 0 0 0 0 0 0 0
Nghost:    42200 ave 42200 max 42200 min
Histogram: 1 0 0 0 0 0 0 0 0 0
Neighs:    0 ave 0 max 0 min
Histogram: 1 0 0 0 0 0 0 0 0 0
FullNghs:  8.00357e+06 ave 8.00357e+06 max 8.00357e+06 min
Histogram: 1 0 0 0 0 0 0 0 0 0

Total # of neighbors = 8003572
Ave neighs/atom = 48.8154
Neighbor list builds = 0
Dangerous builds = 0
next i
jump SELF loop
variable i loop 801
variable j equal ($i-1)*500
variable j equal (5-1)*500
rerun dump.cutsic.$j.lammpstrj dump x y z box yes scaled no format native
rerun dump.cutsic.2000.lammpstrj dump x y z box yes scaled no format native
Memory usage per processor = 103.568 Mbytes
Step Temp E_pair E_mol TotEng Press Volume 
    2000     327.4678   -1036642.1            0   -1029702.1    6758.6552    2080226.9 
Loop time of 11.4424 on 1 procs for 1 steps with 163956 atoms

Pair  time (%) = 0 (0)
Neigh time (%) = 0 (0)
Comm  time (%) = 0 (0)
Outpt time (%) = 0 (0)
Other time (%) = 11.4424 (100)

Nlocal:    163956 ave 163956 max 163956 min
Histogram: 1 0 0 0 0 0 0 0 0 0
Nghost:    42208 ave 42208 max 42208 min
Histogram: 1 0 0 0 0 0 0 0 0 0
Neighs:    0 ave 0 max 0 min
Histogram: 1 0 0 0 0 0 0 0 0 0
FullNghs:  8.00528e+06 ave 8.00528e+06 max 8.00528e+06 min
Histogram: 1 0 0 0 0 0 0 0 0 0

Total # of neighbors = 8005282
Ave neighs/atom = 48.8258
Neighbor list builds = 0
Dangerous builds = 0
next i
jump SELF loop
variable i loop 801
variable j equal ($i-1)*500
variable j equal (6-1)*500
rerun dump.cutsic.$j.lammpstrj dump x y z box yes scaled no format native
rerun dump.cutsic.2500.lammpstrj dump x y z box yes scaled no format native
Memory usage per processor = 103.568 Mbytes
Step Temp E_pair E_mol TotEng Press Volume 
    2500     327.4678   -1036631.6            0   -1029691.6    5666.1849    2078612.3 
Loop time of 10.8713 on 1 procs for 1 steps with 163956 atoms

Pair  time (%) = 0 (0)
Neigh time (%) = 0 (0)
Comm  time (%) = 0 (0)
Outpt time (%) = 0 (0)
Other time (%) = 10.8713 (100)

Nlocal:    163956 ave 163956 max 163956 min
Histogram: 1 0 0 0 0 0 0 0 0 0
Nghost:    42385 ave 42385 max 42385 min
Histogram: 1 0 0 0 0 0 0 0 0 0
Neighs:    0 ave 0 max 0 min
Histogram: 1 0 0 0 0 0 0 0 0 0
FullNghs:  8.00494e+06 ave 8.00494e+06 max 8.00494e+06 min
Histogram: 1 0 0 0 0 0 0 0 0 0

Total # of neighbors = 8004936
Ave neighs/atom = 48.8237
Neighbor list builds = 0
Dangerous builds = 0
next i
jump SELF loop
variable i loop 801
variable j equal ($i-1)*500
variable j equal (7-1)*500
rerun dump.cutsic.$j.lammpstrj dump x y z box yes scaled no format native
rerun dump.cutsic.3000.lammpstrj dump x y z box yes scaled no format native
Memory usage per processor = 103.568 Mbytes
Step Temp E_pair E_mol TotEng Press Volume 
    3000     327.4678   -1036601.5            0   -1029661.5    6054.9831    2076997.7 
Loop time of 10.733 on 1 procs for 1 steps with 163956 atoms

Pair  time (%) = 0 (0)
Neigh time (%) = 0 (0)
Comm  time (%) = 0 (0)
Outpt time (%) = 0 (0)
Other time (%) = 10.733 (100)

Nlocal:    163956 ave 163956 max 163956 min
Histogram: 1 0 0 0 0 0 0 0 0 0
Nghost:    42530 ave 42530 max 42530 min
Histogram: 1 0 0 0 0 0 0 0 0 0
Neighs:    0 ave 0 max 0 min
Histogram: 1 0 0 0 0 0 0 0 0 0
FullNghs:  8.00736e+06 ave 8.00736e+06 max 8.00736e+06 min
Histogram: 1 0 0 0 0 0 0 0 0 0

Total # of neighbors = 8007356
Ave neighs/atom = 48.8384
Neighbor list builds = 0
Dangerous builds = 0
next i
jump SELF loop
variable i loop 801
variable j equal ($i-1)*500
variable j equal (8-1)*500
rerun dump.cutsic.$j.lammpstrj dump x y z box yes scaled no format native
rerun dump.cutsic.3500.lammpstrj dump x y z box yes scaled no format native
Memory usage per processor = 103.568 Mbytes
Step Temp E_pair E_mol TotEng Press Volume 
    3500     327.4678     -1036557            0     -1029617    4520.8588    2075383.2 
Loop time of 10.8203 on 1 procs for 1 steps with 163956 atoms

Pair  time (%) = 0 (0)
Neigh time (%) = 0 (0)
Comm  time (%) = 0 (0)
Outpt time (%) = 0 (0)
Other time (%) = 10.8203 (100)

Nlocal:    163956 ave 163956 max 163956 min
Histogram: 1 0 0 0 0 0 0 0 0 0
Nghost:    42206 ave 42206 max 42206 min
Histogram: 1 0 0 0 0 0 0 0 0 0
Neighs:    0 ave 0 max 0 min
Histogram: 1 0 0 0 0 0 0 0 0 0
FullNghs:  8.00727e+06 ave 8.00727e+06 max 8.00727e+06 min
Histogram: 1 0 0 0 0 0 0 0 0 0

Total # of neighbors = 8007274
Ave neighs/atom = 48.8379
Neighbor list builds = 0
Dangerous builds = 0
next i
jump SELF loop
variable i loop 801
variable j equal ($i-1)*500
variable j equal (9-1)*500
rerun dump.cutsic.$j.lammpstrj dump x y z box yes scaled no format native
rerun dump.cutsic.4000.lammpstrj dump x y z box yes scaled no format native
Memory usage per processor = 103.568 Mbytes
Step Temp E_pair E_mol TotEng Press Volume 
    4000     327.4678   -1036491.5            0   -1029551.5    4038.4596    2073768.6 
Loop time of 11.5278 on 1 procs for 1 steps with 163956 atoms

Pair  time (%) = 0 (0)
Neigh time (%) = 0 (0)
Comm  time (%) = 0 (0)
Outpt time (%) = 0 (0)
Other time (%) = 11.5278 (100)

Nlocal:    163956 ave 163956 max 163956 min
Histogram: 1 0 0 0 0 0 0 0 0 0
Nghost:    42022 ave 42022 max 42022 min
Histogram: 1 0 0 0 0 0 0 0 0 0
Neighs:    0 ave 0 max 0 min
Histogram: 1 0 0 0 0 0 0 0 0 0
FullNghs:  8.0094e+06 ave 8.0094e+06 max 8.0094e+06 min
Histogram: 1 0 0 0 0 0 0 0 0 0

Total # of neighbors = 8009398
Ave neighs/atom = 48.8509
Neighbor list builds = 0
Dangerous builds = 0
next i
jump SELF loop
variable i loop 801
variable j equal ($i-1)*500
variable j equal (10-1)*500
rerun dump.cutsic.$j.lammpstrj dump x y z box yes scaled no format native
rerun dump.cutsic.4500.lammpstrj dump x y z box yes scaled no format native
Memory usage per processor = 103.568 Mbytes
Step Temp E_pair E_mol TotEng Press Volume 
    4500     327.4678     -1036474            0     -1029534    4877.0028      2072154 
Loop time of 10.5114 on 1 procs for 1 steps with 163956 atoms

Pair  time (%) = 0 (0)
Neigh time (%) = 0 (0)
Comm  time (%) = 0 (0)
Outpt time (%) = 0 (0)
Other time (%) = 10.5114 (100)

Nlocal:    163956 ave 163956 max 163956 min
Histogram: 1 0 0 0 0 0 0 0 0 0
Nghost:    42049 ave 42049 max 42049 min
Histogram: 1 0 0 0 0 0 0 0 0 0
Neighs:    0 ave 0 max 0 min
Histogram: 1 0 0 0 0 0 0 0 0 0
FullNghs:  8.01113e+06 ave 8.01113e+06 max 8.01113e+06 min
Histogram: 1 0 0 0 0 0 0 0 0 0

Total # of neighbors = 8011130
Ave neighs/atom = 48.8615
Neighbor list builds = 0
Dangerous builds = 0
next i
jump SELF loop
variable i loop 801
variable j equal ($i-1)*500
variable j equal (11-1)*500
rerun dump.cutsic.$j.lammpstrj dump x y z box yes scaled no format native
rerun dump.cutsic.5000.lammpstrj dump x y z box yes scaled no format native
Memory usage per processor = 103.568 Mbytes
Step Temp E_pair E_mol TotEng Press Volume 
    5000     327.4678   -1036436.9            0     -1029497    6282.3655    2070539.5 
Loop time of 10.9534 on 1 procs for 1 steps with 163956 atoms

Pair  time (%) = 0 (0)
Neigh time (%) = 0 (0)
Comm  time (%) = 0 (0)
Outpt time (%) = 0 (0)
Other time (%) = 10.9534 (100)

Nlocal:    163956 ave 163956 max 163956 min
Histogram: 1 0 0 0 0 0 0 0 0 0
Nghost:    42273 ave 42273 max 42273 min
Histogram: 1 0 0 0 0 0 0 0 0 0
Neighs:    0 ave 0 max 0 min
Histogram: 1 0 0 0 0 0 0 0 0 0
FullNghs:  8.01034e+06 ave 8.01034e+06 max 8.01034e+06 min
Histogram: 1 0 0 0 0 0 0 0 0 0

Total # of neighbors = 8010338
Ave neighs/atom = 48.8566
Neighbor list builds = 0
Dangerous builds = 0
next i
jump SELF loop
variable i loop 801
variable j equal ($i-1)*500
variable j equal (12-1)*500
rerun dump.cutsic.$j.lammpstrj dump x y z box yes scaled no format native
rerun dump.cutsic.5500.lammpstrj dump x y z box yes scaled no format native
Memory usage per processor = 103.568 Mbytes
Step Temp E_pair E_mol TotEng Press Volume 
    5500     327.4678   -1036430.6            0   -1029490.6      9203.51    2068924.9 
Loop time of 11.0441 on 1 procs for 1 steps with 163956 atoms

Pair  time (%) = 0 (0)
Neigh time (%) = 0 (0)
Comm  time (%) = 0 (0)
Outpt time (%) = 0 (0)
Other time (%) = 11.0441 (100)

Nlocal:    163956 ave 163956 max 163956 min
Histogram: 1 0 0 0 0 0 0 0 0 0
Nghost:    42546 ave 42546 max 42546 min
Histogram: 1 0 0 0 0 0 0 0 0 0
Neighs:    0 ave 0 max 0 min
Histogram: 1 0 0 0 0 0 0 0 0 0
FullNghs:  8.01233e+06 ave 8.01233e+06 max 8.01233e+06 min
Histogram: 1 0 0 0 0 0 0 0 0 0

Total # of neighbors = 8012326
Ave neighs/atom = 48.8688
Neighbor list builds = 0
Dangerous builds = 0
next i
jump SELF loop
variable i loop 801
variable j equal ($i-1)*500
variable j equal (13-1)*500
rerun dump.cutsic.$j.lammpstrj dump x y z box yes scaled no format native
rerun dump.cutsic.6000.lammpstrj dump x y z box yes scaled no format native
Memory usage per processor = 103.568 Mbytes
Step Temp E_pair E_mol TotEng Press Volume 
    6000     327.4678   -1036385.1            0   -1029445.1    11197.176    2067310.3 
Loop time of 10.8631 on 1 procs for 1 steps with 163956 atoms

Pair  time (%) = 0 (0)
Neigh time (%) = 0 (0)
Comm  time (%) = 0 (0)
Outpt time (%) = 0 (0)
Other time (%) = 10.8631 (100)

Nlocal:    163956 ave 163956 max 163956 min
Histogram: 1 0 0 0 0 0 0 0 0 0
Nghost:    42526 ave 42526 max 42526 min
Histogram: 1 0 0 0 0 0 0 0 0 0
Neighs:    0 ave 0 max 0 min
Histogram: 1 0 0 0 0 0 0 0 0 0
FullNghs:  8.01186e+06 ave 8.01186e+06 max 8.01186e+06 min
Histogram: 1 0 0 0 0 0 0 0 0 0

Total # of neighbors = 8011856
Ave neighs/atom = 48.8659
Neighbor list builds = 0
Dangerous builds = 0
next i
jump SELF loop
variable i loop 801
variable j equal ($i-1)*500
variable j equal (14-1)*500
rerun dump.cutsic.$j.lammpstrj dump x y z box yes scaled no format native
rerun dump.cutsic.6500.lammpstrj dump x y z box yes scaled no format native
Memory usage per processor = 103.568 Mbytes
Step Temp E_pair E_mol TotEng Press Volume 
    6500     327.4678   -1036308.1            0   -1029368.1    12987.606    2065695.7 
Loop time of 10.8094 on 1 procs for 1 steps with 163956 atoms

Pair  time (%) = 0 (0)
Neigh time (%) = 0 (0)
Comm  time (%) = 0 (0)
Outpt time (%) = 0 (0)
Other time (%) = 10.8094 (100)

Nlocal:    163956 ave 163956 max 163956 min
Histogram: 1 0 0 0 0 0 0 0 0 0
Nghost:    42166 ave 42166 max 42166 min
Histogram: 1 0 0 0 0 0 0 0 0 0
Neighs:    0 ave 0 max 0 min
Histogram: 1 0 0 0 0 0 0 0 0 0
FullNghs:  8.01409e+06 ave 8.01409e+06 max 8.01409e+06 min
Histogram: 1 0 0 0 0 0 0 0 0 0

Total # of neighbors = 8014088
Ave neighs/atom = 48.8795
Neighbor list builds = 0
Dangerous builds = 0
next i
jump SELF loop
variable i loop 801
variable j equal ($i-1)*500
variable j equal (15-1)*500
rerun dump.cutsic.$j.lammpstrj dump x y z box yes scaled no format native
rerun dump.cutsic.7000.lammpstrj dump x y z box yes scaled no format native
Memory usage per processor = 103.568 Mbytes
Step Temp E_pair E_mol TotEng Press Volume 
    7000     327.4678   -1036238.9            0   -1029298.9    13084.596    2064081.2 
Loop time of 10.7075 on 1 procs for 1 steps with 163956 atoms

Pair  time (%) = 0 (0)
Neigh time (%) = 0 (0)
Comm  time (%) = 0 (0)
Outpt time (%) = 0 (0)
Other time (%) = 10.7075 (100)

Nlocal:    163956 ave 163956 max 163956 min
Histogram: 1 0 0 0 0 0 0 0 0 0
Nghost:    42114 ave 42114 max 42114 min
Histogram: 1 0 0 0 0 0 0 0 0 0
Neighs:    0 ave 0 max 0 min
Histogram: 1 0 0 0 0 0 0 0 0 0
FullNghs:  8.01617e+06 ave 8.01617e+06 max 8.01617e+06 min
Histogram: 1 0 0 0 0 0 0 0 0 0

Total # of neighbors = 8016166
Ave neighs/atom = 48.8922
Neighbor list builds = 0
Dangerous builds = 0
next i
jump SELF loop
variable i loop 801
variable j equal ($i-1)*500
variable j equal (16-1)*500
rerun dump.cutsic.$j.lammpstrj dump x y z box yes scaled no format native
rerun dump.cutsic.7500.lammpstrj dump x y z box yes scaled no format native
Memory usage per processor = 103.568 Mbytes
Step Temp E_pair E_mol TotEng Press Volume 
    7500     327.4678   -1036189.8            0   -1029249.8    11858.697    2062466.6 
Loop time of 11.485 on 1 procs for 1 steps with 163956 atoms

Pair  time (%) = 0 (0)
Neigh time (%) = 0 (0)
Comm  time (%) = 0 (0)
Outpt time (%) = 0 (0)
Other time (%) = 11.485 (100)

Nlocal:    163956 ave 163956 max 163956 min
Histogram: 1 0 0 0 0 0 0 0 0 0
Nghost:    42328 ave 42328 max 42328 min
Histogram: 1 0 0 0 0 0 0 0 0 0
Neighs:    0 ave 0 max 0 min
Histogram: 1 0 0 0 0 0 0 0 0 0
FullNghs:  8.01763e+06 ave 8.01763e+06 max 8.01763e+06 min
Histogram: 1 0 0 0 0 0 0 0 0 0

Total # of neighbors = 8017628
Ave neighs/atom = 48.9011
Neighbor list builds = 0
Dangerous builds = 0
next i
jump SELF loop
variable i loop 801
variable j equal ($i-1)*500
variable j equal (17-1)*500
rerun dump.cutsic.$j.lammpstrj dump x y z box yes scaled no format native
rerun dump.cutsic.8000.lammpstrj dump x y z box yes scaled no format native
Memory usage per processor = 103.568 Mbytes
Step Temp E_pair E_mol TotEng Press Volume 
    8000     327.4678     -1036126            0     -1029186    11663.544      2060852 
Loop time of 10.9243 on 1 procs for 1 steps with 163956 atoms

Pair  time (%) = 0 (0)
Neigh time (%) = 0 (0)
Comm  time (%) = 0 (0)
Outpt time (%) = 0 (0)
Other time (%) = 10.9243 (100)

Nlocal:    163956 ave 163956 max 163956 min
Histogram: 1 0 0 0 0 0 0 0 0 0
Nghost:    42774 ave 42774 max 42774 min
Histogram: 1 0 0 0 0 0 0 0 0 0
Neighs:    0 ave 0 max 0 min
Histogram: 1 0 0 0 0 0 0 0 0 0
FullNghs:  8.02014e+06 ave 8.02014e+06 max 8.02014e+06 min
Histogram: 1 0 0 0 0 0 0 0 0 0

Total # of neighbors = 8020142
Ave neighs/atom = 48.9164
Neighbor list builds = 0
Dangerous builds = 0
next i
jump SELF loop
variable i loop 801
variable j equal ($i-1)*500
variable j equal (18-1)*500
rerun dump.cutsic.$j.lammpstrj dump x y z box yes scaled no format native
rerun dump.cutsic.8500.lammpstrj dump x y z box yes scaled no format native
Memory usage per processor = 103.568 Mbytes
Step Temp E_pair E_mol TotEng Press Volume 
    8500     327.4678   -1036035.2            0   -1029095.2    11421.024    2059237.5 
Loop time of 10.8666 on 1 procs for 1 steps with 163956 atoms

Pair  time (%) = 0 (0)
Neigh time (%) = 0 (0)
Comm  time (%) = 0 (0)
Outpt time (%) = 0 (0)
Other time (%) = 10.8666 (100)

Nlocal:    163956 ave 163956 max 163956 min
Histogram: 1 0 0 0 0 0 0 0 0 0
Nghost:    42537 ave 42537 max 42537 min
Histogram: 1 0 0 0 0 0 0 0 0 0
Neighs:    0 ave 0 max 0 min
Histogram: 1 0 0 0 0 0 0 0 0 0
FullNghs:  8.02181e+06 ave 8.02181e+06 max 8.02181e+06 min
Histogram: 1 0 0 0 0 0 0 0 0 0

Total # of neighbors = 8021810
Ave neighs/atom = 48.9266
Neighbor list builds = 0
Dangerous builds = 0
next i
jump SELF loop
variable i loop 801
variable j equal ($i-1)*500
variable j equal (19-1)*500
rerun dump.cutsic.$j.lammpstrj dump x y z box yes scaled no format native
rerun dump.cutsic.9000.lammpstrj dump x y z box yes scaled no format native
Memory usage per processor = 103.568 Mbytes
Step Temp E_pair E_mol TotEng Press Volume 
    9000     327.4678   -1035955.7            0   -1029015.7    13431.743    2057622.9 
Loop time of 11.0893 on 1 procs for 1 steps with 163956 atoms

Pair  time (%) = 0 (0)
Neigh time (%) = 0 (0)
Comm  time (%) = 0 (0)
Outpt time (%) = 0 (0)
Other time (%) = 11.0893 (100)

Nlocal:    163956 ave 163956 max 163956 min
Histogram: 1 0 0 0 0 0 0 0 0 0
Nghost:    42085 ave 42085 max 42085 min
Histogram: 1 0 0 0 0 0 0 0 0 0
Neighs:    0 ave 0 max 0 min
Histogram: 1 0 0 0 0 0 0 0 0 0
FullNghs:  8.02435e+06 ave 8.02435e+06 max 8.02435e+06 min
Histogram: 1 0 0 0 0 0 0 0 0 0

Total # of neighbors = 8024354
Ave neighs/atom = 48.9421
Neighbor list builds = 0
Dangerous builds = 0
next i
jump SELF loop
variable i loop 801
variable j equal ($i-1)*500
variable j equal (20-1)*500
rerun dump.cutsic.$j.lammpstrj dump x y z box yes scaled no format native
rerun dump.cutsic.9500.lammpstrj dump x y z box yes scaled no format native
Memory usage per processor = 103.568 Mbytes
Step Temp E_pair E_mol TotEng Press Volume 
    9500     327.4678   -1035891.3            0   -1028951.4    15633.616    2056008.3 
Loop time of 10.5335 on 1 procs for 1 steps with 163956 atoms

Pair  time (%) = 0 (0)
Neigh time (%) = 0 (0)
Comm  time (%) = 0 (0)
Outpt time (%) = 0 (0)
Other time (%) = 10.5335 (100)

Nlocal:    163956 ave 163956 max 163956 min
Histogram: 1 0 0 0 0 0 0 0 0 0
Nghost:    41977 ave 41977 max 41977 min
Histogram: 1 0 0 0 0 0 0 0 0 0
Neighs:    0 ave 0 max 0 min
Histogram: 1 0 0 0 0 0 0 0 0 0
FullNghs:  8.02394e+06 ave 8.02394e+06 max 8.02394e+06 min
Histogram: 1 0 0 0 0 0 0 0 0 0

Total # of neighbors = 8023938
Ave neighs/atom = 48.9396
Neighbor list builds = 0
Dangerous builds = 0
next i
jump SELF loop
variable i loop 801
variable j equal ($i-1)*500
variable j equal (21-1)*500
rerun dump.cutsic.$j.lammpstrj dump x y z box yes scaled no format native
rerun dump.cutsic.10000.lammpstrj dump x y z box yes scaled no format native
Memory usage per processor = 103.568 Mbytes
Step Temp E_pair E_mol TotEng Press Volume 
   10000     327.4678   -1035835.6            0   -1028895.6    18498.451    2054393.7 
Loop time of 10.7389 on 1 procs for 1 steps with 163956 atoms

Pair  time (%) = 0 (0)
Neigh time (%) = 0 (0)
Comm  time (%) = 0 (0)
Outpt time (%) = 0 (0)
Other time (%) = 10.7389 (100)

Nlocal:    163956 ave 163956 max 163956 min
Histogram: 1 0 0 0 0 0 0 0 0 0
Nghost:    42245 ave 42245 max 42245 min
Histogram: 1 0 0 0 0 0 0 0 0 0
Neighs:    0 ave 0 max 0 min
Histogram: 1 0 0 0 0 0 0 0 0 0
FullNghs:  8.02731e+06 ave 8.02731e+06 max 8.02731e+06 min
Histogram: 1 0 0 0 0 0 0 0 0 0

Total # of neighbors = 8027306
Ave neighs/atom = 48.9601
Neighbor list builds = 0
Dangerous builds = 0
next i
jump SELF loop
variable i loop 801
variable j equal ($i-1)*500
variable j equal (22-1)*500
rerun dump.cutsic.$j.lammpstrj dump x y z box yes scaled no format native
rerun dump.cutsic.10500.lammpstrj dump x y z box yes scaled no format native
Memory usage per processor = 103.568 Mbytes
Step Temp E_pair E_mol TotEng Press Volume 
   10500     327.4678   -1035736.7            0   -1028796.8    20418.923    2052779.2 
Loop time of 11.2909 on 1 procs for 1 steps with 163956 atoms

Pair  time (%) = 0 (0)
Neigh time (%) = 0 (0)
Comm  time (%) = 0 (0)
Outpt time (%) = 0 (0)
Other time (%) = 11.2909 (100)

Nlocal:    163956 ave 163956 max 163956 min
Histogram: 1 0 0 0 0 0 0 0 0 0
Nghost:    42648 ave 42648 max 42648 min
Histogram: 1 0 0 0 0 0 0 0 0 0
Neighs:    0 ave 0 max 0 min
Histogram: 1 0 0 0 0 0 0 0 0 0
FullNghs:  8.03096e+06 ave 8.03096e+06 max 8.03096e+06 min
Histogram: 1 0 0 0 0 0 0 0 0 0

Total # of neighbors = 8030962
Ave neighs/atom = 48.9824
Neighbor list builds = 0
Dangerous builds = 0
next i
jump SELF loop
variable i loop 801
variable j equal ($i-1)*500
variable j equal (23-1)*500
rerun dump.cutsic.$j.lammpstrj dump x y z box yes scaled no format native
rerun dump.cutsic.11000.lammpstrj dump x y z box yes scaled no format native
Memory usage per processor = 103.568 Mbytes
Step Temp E_pair E_mol TotEng Press Volume 
   11000     327.4678   -1035626.1            0   -1028686.1    21009.007    2051164.6 
Loop time of 11.161 on 1 procs for 1 steps with 163956 atoms

Pair  time (%) = 0 (0)
Neigh time (%) = 0 (0)
Comm  time (%) = 0 (0)
Outpt time (%) = 0 (0)
Other time (%) = 11.161 (100)

Nlocal:    163956 ave 163956 max 163956 min
Histogram: 1 0 0 0 0 0 0 0 0 0
Nghost:    42607 ave 42607 max 42607 min
Histogram: 1 0 0 0 0 0 0 0 0 0
Neighs:    0 ave 0 max 0 min
Histogram: 1 0 0 0 0 0 0 0 0 0
FullNghs:  8.03138e+06 ave 8.03138e+06 max 8.03138e+06 min
Histogram: 1 0 0 0 0 0 0 0 0 0

Total # of neighbors = 8031380
Ave neighs/atom = 48.985
Neighbor list builds = 0
Dangerous builds = 0
next i
jump SELF loop
variable i loop 801
variable j equal ($i-1)*500
variable j equal (24-1)*500
rerun dump.cutsic.$j.lammpstrj dump x y z box yes scaled no format native
rerun dump.cutsic.11500.lammpstrj dump x y z box yes scaled no format native
Memory usage per processor = 103.568 Mbytes
Step Temp E_pair E_mol TotEng Press Volume 
   11500     327.4678   -1035540.6            0   -1028600.6    21142.352      2049550 
Loop time of 10.6726 on 1 procs for 1 steps with 163956 atoms

Pair  time (%) = 0 (0)
Neigh time (%) = 0 (0)
Comm  time (%) = 0 (0)
Outpt time (%) = 0 (0)
Other time (%) = 10.6726 (100)

Nlocal:    163956 ave 163956 max 163956 min
Histogram: 1 0 0 0 0 0 0 0 0 0
Nghost:    42316 ave 42316 max 42316 min
Histogram: 1 0 0 0 0 0 0 0 0 0
Neighs:    0 ave 0 max 0 min
Histogram: 1 0 0 0 0 0 0 0 0 0
FullNghs:  8.03356e+06 ave 8.03356e+06 max 8.03356e+06 min
Histogram: 1 0 0 0 0 0 0 0 0 0

Total # of neighbors = 8033556
Ave neighs/atom = 48.9982
Neighbor list builds = 0
Dangerous builds = 0
next i
jump SELF loop
variable i loop 801
variable j equal ($i-1)*500
variable j equal (25-1)*500
rerun dump.cutsic.$j.lammpstrj dump x y z box yes scaled no format native
rerun dump.cutsic.12000.lammpstrj dump x y z box yes scaled no format native
Memory usage per processor = 103.568 Mbytes
Step Temp E_pair E_mol TotEng Press Volume 
   12000     327.4678   -1035417.2            0   -1028477.2    21634.212    2047935.5 
Loop time of 11.4267 on 1 procs for 1 steps with 163956 atoms

Pair  time (%) = 0 (0)
Neigh time (%) = 0 (0)
Comm  time (%) = 0 (0)
Outpt time (%) = 0 (0)
Other time (%) = 11.4267 (100)

Nlocal:    163956 ave 163956 max 163956 min
Histogram: 1 0 0 0 0 0 0 0 0 0
Nghost:    42138 ave 42138 max 42138 min
Histogram: 1 0 0 0 0 0 0 0 0 0
Neighs:    0 ave 0 max 0 min
Histogram: 1 0 0 0 0 0 0 0 0 0
FullNghs:  8.03326e+06 ave 8.03326e+06 max 8.03326e+06 min
Histogram: 1 0 0 0 0 0 0 0 0 0

Total # of neighbors = 8033262
Ave neighs/atom = 48.9965
Neighbor list builds = 0
Dangerous builds = 0
next i
jump SELF loop
variable i loop 801
variable j equal ($i-1)*500
variable j equal (26-1)*500
rerun dump.cutsic.$j.lammpstrj dump x y z box yes scaled no format native
rerun dump.cutsic.12500.lammpstrj dump x y z box yes scaled no format native
Memory usage per processor = 103.568 Mbytes
Step Temp E_pair E_mol TotEng Press Volume 
   12500     327.4678   -1035285.2            0   -1028345.2    20362.479    2046320.9 
Loop time of 10.5263 on 1 procs for 1 steps with 163956 atoms

Pair  time (%) = 0 (0)
Neigh time (%) = 0 (0)
Comm  time (%) = 0 (0)
Outpt time (%) = 0 (0)
Other time (%) = 10.5263 (100)

Nlocal:    163956 ave 163956 max 163956 min
Histogram: 1 0 0 0 0 0 0 0 0 0
Nghost:    42273 ave 42273 max 42273 min
Histogram: 1 0 0 0 0 0 0 0 0 0
Neighs:    0 ave 0 max 0 min
Histogram: 1 0 0 0 0 0 0 0 0 0
FullNghs:  8.03798e+06 ave 8.03798e+06 max 8.03798e+06 min
Histogram: 1 0 0 0 0 0 0 0 0 0

Total # of neighbors = 8037982
Ave neighs/atom = 49.0252
Neighbor list builds = 0
Dangerous builds = 0
next i
jump SELF loop
variable i loop 801
variable j equal ($i-1)*500
variable j equal (27-1)*500
rerun dump.cutsic.$j.lammpstrj dump x y z box yes scaled no format native
rerun dump.cutsic.13000.lammpstrj dump x y z box yes scaled no format native
Memory usage per processor = 103.568 Mbytes
Step Temp E_pair E_mol TotEng Press Volume 
   13000     327.4678   -1035172.1            0   -1028232.1    20821.752    2044706.3 
Loop time of 10.7296 on 1 procs for 1 steps with 163956 atoms

Pair  time (%) = 0 (0)
Neigh time (%) = 0 (0)
Comm  time (%) = 0 (0)
Outpt time (%) = 0 (0)
Other time (%) = 10.7296 (100)

Nlocal:    163956 ave 163956 max 163956 min
Histogram: 1 0 0 0 0 0 0 0 0 0
Nghost:    42564 ave 42564 max 42564 min
Histogram: 1 0 0 0 0 0 0 0 0 0
Neighs:    0 ave 0 max 0 min
Histogram: 1 0 0 0 0 0 0 0 0 0
FullNghs:  8.04071e+06 ave 8.04071e+06 max 8.04071e+06 min
Histogram: 1 0 0 0 0 0 0 0 0 0

Total # of neighbors = 8040708
Ave neighs/atom = 49.0419
Neighbor list builds = 0
Dangerous builds = 0
next i
jump SELF loop
variable i loop 801
variable j equal ($i-1)*500
variable j equal (28-1)*500
rerun dump.cutsic.$j.lammpstrj dump x y z box yes scaled no format native
rerun dump.cutsic.13500.lammpstrj dump x y z box yes scaled no format native
Memory usage per processor = 103.568 Mbytes
Step Temp E_pair E_mol TotEng Press Volume 
   13500     327.4678   -1035058.4            0   -1028118.4    23322.969    2043091.7 
Loop time of 10.6635 on 1 procs for 1 steps with 163956 atoms

Pair  time (%) = 0 (0)
Neigh time (%) = 0 (0)
Comm  time (%) = 0 (0)
Outpt time (%) = 0 (0)
Other time (%) = 10.6635 (100)

Nlocal:    163956 ave 163956 max 163956 min
Histogram: 1 0 0 0 0 0 0 0 0 0
Nghost:    42730 ave 42730 max 42730 min
Histogram: 1 0 0 0 0 0 0 0 0 0
Neighs:    0 ave 0 max 0 min
Histogram: 1 0 0 0 0 0 0 0 0 0
FullNghs:  8.04572e+06 ave 8.04572e+06 max 8.04572e+06 min
Histogram: 1 0 0 0 0 0 0 0 0 0

Total # of neighbors = 8045720
Ave neighs/atom = 49.0724
Neighbor list builds = 0
Dangerous builds = 0
next i
jump SELF loop
variable i loop 801
variable j equal ($i-1)*500
variable j equal (29-1)*500
rerun dump.cutsic.$j.lammpstrj dump x y z box yes scaled no format native
rerun dump.cutsic.14000.lammpstrj dump x y z box yes scaled no format native
Memory usage per processor = 103.568 Mbytes
Step Temp E_pair E_mol TotEng Press Volume 
   14000     327.4678   -1034972.1            0   -1028032.2    27061.489    2041477.2 
Loop time of 10.9723 on 1 procs for 1 steps with 163956 atoms

Pair  time (%) = 0 (0)
Neigh time (%) = 0 (0)
Comm  time (%) = 0 (0)
Outpt time (%) = 0 (0)
Other time (%) = 10.9723 (100)

Nlocal:    163956 ave 163956 max 163956 min
Histogram: 1 0 0 0 0 0 0 0 0 0
Nghost:    42451 ave 42451 max 42451 min
Histogram: 1 0 0 0 0 0 0 0 0 0
Neighs:    0 ave 0 max 0 min
Histogram: 1 0 0 0 0 0 0 0 0 0
FullNghs:  8.0491e+06 ave 8.0491e+06 max 8.0491e+06 min
Histogram: 1 0 0 0 0 0 0 0 0 0

Total # of neighbors = 8049100
Ave neighs/atom = 49.093
Neighbor list builds = 0
Dangerous builds = 0
next i
jump SELF loop
variable i loop 801
variable j equal ($i-1)*500
variable j equal (30-1)*500
rerun dump.cutsic.$j.lammpstrj dump x y z box yes scaled no format native
rerun dump.cutsic.14500.lammpstrj dump x y z box yes scaled no format native
Memory usage per processor = 103.568 Mbytes
Step Temp E_pair E_mol TotEng Press Volume 
   14500     327.4678   -1034804.3            0   -1027864.3    29924.746    2039862.6 
Loop time of 10.6559 on 1 procs for 1 steps with 163956 atoms

Pair  time (%) = 0 (0)
Neigh time (%) = 0 (0)
Comm  time (%) = 0 (0)
Outpt time (%) = 0 (0)
Other time (%) = 10.6559 (100)

Nlocal:    163956 ave 163956 max 163956 min
Histogram: 1 0 0 0 0 0 0 0 0 0
Nghost:    42352 ave 42352 max 42352 min
Histogram: 1 0 0 0 0 0 0 0 0 0
Neighs:    0 ave 0 max 0 min
Histogram: 1 0 0 0 0 0 0 0 0 0
FullNghs:  8.04901e+06 ave 8.04901e+06 max 8.04901e+06 min
Histogram: 1 0 0 0 0 0 0 0 0 0

Total # of neighbors = 8049014
Ave neighs/atom = 49.0925
Neighbor list builds = 0
Dangerous builds = 0
next i
jump SELF loop
variable i loop 801
variable j equal ($i-1)*500
variable j equal (31-1)*500
rerun dump.cutsic.$j.lammpstrj dump x y z box yes scaled no format native
rerun dump.cutsic.15000.lammpstrj dump x y z box yes scaled no format native
Memory usage per processor = 103.568 Mbytes
Step Temp E_pair E_mol TotEng Press Volume 
   15000     327.4678   -1034678.2            0   -1027738.2    33442.457      2038248 
Loop time of 10.4572 on 1 procs for 1 steps with 163956 atoms

Pair  time (%) = 0 (0)
Neigh time (%) = 0 (0)
Comm  time (%) = 0 (0)
Outpt time (%) = 0 (0)
Other time (%) = 10.4572 (100)

Nlocal:    163956 ave 163956 max 163956 min
Histogram: 1 0 0 0 0 0 0 0 0 0
Nghost:    42344 ave 42344 max 42344 min
Histogram: 1 0 0 0 0 0 0 0 0 0
Neighs:    0 ave 0 max 0 min
Histogram: 1 0 0 0 0 0 0 0 0 0
FullNghs:  8.05413e+06 ave 8.05413e+06 max 8.05413e+06 min
Histogram: 1 0 0 0 0 0 0 0 0 0

Total # of neighbors = 8054130
Ave neighs/atom = 49.1237
Neighbor list builds = 0
Dangerous builds = 0
next i
jump SELF loop
variable i loop 801
variable j equal ($i-1)*500
variable j equal (32-1)*500
rerun dump.cutsic.$j.lammpstrj dump x y z box yes scaled no format native
rerun dump.cutsic.15500.lammpstrj dump x y z box yes scaled no format native
Memory usage per processor = 103.568 Mbytes
Step Temp E_pair E_mol TotEng Press Volume 
   15500     327.4678   -1034513.2            0   -1027573.3    33222.387    2036633.5 
Loop time of 10.4953 on 1 procs for 1 steps with 163956 atoms

Pair  time (%) = 0 (0)
Neigh time (%) = 0 (0)
Comm  time (%) = 0 (0)
Outpt time (%) = 0 (0)
Other time (%) = 10.4953 (100)

Nlocal:    163956 ave 163956 max 163956 min
Histogram: 1 0 0 0 0 0 0 0 0 0
Nghost:    42629 ave 42629 max 42629 min
Histogram: 1 0 0 0 0 0 0 0 0 0
Neighs:    0 ave 0 max 0 min
Histogram: 1 0 0 0 0 0 0 0 0 0
FullNghs:  8.05611e+06 ave 8.05611e+06 max 8.05611e+06 min
Histogram: 1 0 0 0 0 0 0 0 0 0

Total # of neighbors = 8056114
Ave neighs/atom = 49.1358
Neighbor list builds = 0
Dangerous builds = 0
next i
jump SELF loop
variable i loop 801
variable j equal ($i-1)*500
variable j equal (33-1)*500
rerun dump.cutsic.$j.lammpstrj dump x y z box yes scaled no format native
rerun dump.cutsic.16000.lammpstrj dump x y z box yes scaled no format native
Memory usage per processor = 103.568 Mbytes
Step Temp E_pair E_mol TotEng Press Volume 
   16000     327.4678   -1034336.1            0   -1027396.1    32227.892    2035018.9 
Loop time of 10.5232 on 1 procs for 1 steps with 163956 atoms

Pair  time (%) = 0 (0)
Neigh time (%) = 0 (0)
Comm  time (%) = 0 (0)
Outpt time (%) = 0 (0)
Other time (%) = 10.5232 (100)

Nlocal:    163956 ave 163956 max 163956 min
Histogram: 1 0 0 0 0 0 0 0 0 0
Nghost:    42576 ave 42576 max 42576 min
Histogram: 1 0 0 0 0 0 0 0 0 0
Neighs:    0 ave 0 max 0 min
Histogram: 1 0 0 0 0 0 0 0 0 0
FullNghs:  8.05949e+06 ave 8.05949e+06 max 8.05949e+06 min
Histogram: 1 0 0 0 0 0 0 0 0 0

Total # of neighbors = 8059486
Ave neighs/atom = 49.1564
Neighbor list builds = 0
Dangerous builds = 0
next i
jump SELF loop
variable i loop 801
variable j equal ($i-1)*500
variable j equal (34-1)*500
rerun dump.cutsic.$j.lammpstrj dump x y z box yes scaled no format native
rerun dump.cutsic.16500.lammpstrj dump x y z box yes scaled no format native
Memory usage per processor = 103.568 Mbytes
Step Temp E_pair E_mol TotEng Press Volume 
   16500     327.4678   -1034155.8            0   -1027215.8    32739.162    2033404.3 
Loop time of 10.5328 on 1 procs for 1 steps with 163956 atoms

Pair  time (%) = 0 (0)
Neigh time (%) = 0 (0)
Comm  time (%) = 0 (0)
Outpt time (%) = 0 (0)
Other time (%) = 10.5328 (100)

Nlocal:    163956 ave 163956 max 163956 min
Histogram: 1 0 0 0 0 0 0 0 0 0
Nghost:    42315 ave 42315 max 42315 min
Histogram: 1 0 0 0 0 0 0 0 0 0
Neighs:    0 ave 0 max 0 min
Histogram: 1 0 0 0 0 0 0 0 0 0
FullNghs:  8.05971e+06 ave 8.05971e+06 max 8.05971e+06 min
Histogram: 1 0 0 0 0 0 0 0 0 0

Total # of neighbors = 8059708
Ave neighs/atom = 49.1577
Neighbor list builds = 0
Dangerous builds = 0
next i
jump SELF loop
variable i loop 801
variable j equal ($i-1)*500
variable j equal (35-1)*500
rerun dump.cutsic.$j.lammpstrj dump x y z box yes scaled no format native
rerun dump.cutsic.17000.lammpstrj dump x y z box yes scaled no format native
Memory usage per processor = 103.568 Mbytes
Step Temp E_pair E_mol TotEng Press Volume 
   17000     327.4678   -1033949.7            0   -1027009.7    33003.443    2031789.7 
Loop time of 10.5991 on 1 procs for 1 steps with 163956 atoms

Pair  time (%) = 0 (0)
Neigh time (%) = 0 (0)
Comm  time (%) = 0 (0)
Outpt time (%) = 0 (0)
Other time (%) = 10.5991 (100)

Nlocal:    163956 ave 163956 max 163956 min
Histogram: 1 0 0 0 0 0 0 0 0 0
Nghost:    42043 ave 42043 max 42043 min
Histogram: 1 0 0 0 0 0 0 0 0 0
Neighs:    0 ave 0 max 0 min
Histogram: 1 0 0 0 0 0 0 0 0 0
FullNghs:  8.05779e+06 ave 8.05779e+06 max 8.05779e+06 min
Histogram: 1 0 0 0 0 0 0 0 0 0

Total # of neighbors = 8057792
Ave neighs/atom = 49.1461
Neighbor list builds = 0
Dangerous builds = 0
next i
jump SELF loop
variable i loop 801
variable j equal ($i-1)*500
variable j equal (36-1)*500
rerun dump.cutsic.$j.lammpstrj dump x y z box yes scaled no format native
rerun dump.cutsic.17500.lammpstrj dump x y z box yes scaled no format native
Memory usage per processor = 103.568 Mbytes
Step Temp E_pair E_mol TotEng Press Volume 
   17500     327.4678   -1033782.9            0     -1026843    33244.847    2030175.2 
Loop time of 10.8739 on 1 procs for 1 steps with 163956 atoms

Pair  time (%) = 0 (0)
Neigh time (%) = 0 (0)
Comm  time (%) = 0 (0)
Outpt time (%) = 0 (0)
Other time (%) = 10.8739 (100)

Nlocal:    163956 ave 163956 max 163956 min
Histogram: 1 0 0 0 0 0 0 0 0 0
Nghost:    42088 ave 42088 max 42088 min
Histogram: 1 0 0 0 0 0 0 0 0 0
Neighs:    0 ave 0 max 0 min
Histogram: 1 0 0 0 0 0 0 0 0 0
FullNghs:  8.06215e+06 ave 8.06215e+06 max 8.06215e+06 min
Histogram: 1 0 0 0 0 0 0 0 0 0

Total # of neighbors = 8062152
Ave neighs/atom = 49.1727
Neighbor list builds = 0
Dangerous builds = 0
next i
jump SELF loop
variable i loop 801
variable j equal ($i-1)*500
variable j equal (37-1)*500
rerun dump.cutsic.$j.lammpstrj dump x y z box yes scaled no format native
rerun dump.cutsic.18000.lammpstrj dump x y z box yes scaled no format native
Memory usage per processor = 103.568 Mbytes
Step Temp E_pair E_mol TotEng Press Volume 
   18000     327.4678   -1033631.1            0   -1026691.1    36866.282    2028560.6 
Loop time of 10.7719 on 1 procs for 1 steps with 163956 atoms

Pair  time (%) = 0 (0)
Neigh time (%) = 0 (0)
Comm  time (%) = 0 (0)
Outpt time (%) = 0 (0)
Other time (%) = 10.7719 (100)

Nlocal:    163956 ave 163956 max 163956 min
Histogram: 1 0 0 0 0 0 0 0 0 0
Nghost:    42463 ave 42463 max 42463 min
Histogram: 1 0 0 0 0 0 0 0 0 0
Neighs:    0 ave 0 max 0 min
Histogram: 1 0 0 0 0 0 0 0 0 0
FullNghs:  8.06255e+06 ave 8.06255e+06 max 8.06255e+06 min
Histogram: 1 0 0 0 0 0 0 0 0 0

Total # of neighbors = 8062554
Ave neighs/atom = 49.1751
Neighbor list builds = 0
Dangerous builds = 0
next i
jump SELF loop
variable i loop 801
variable j equal ($i-1)*500
variable j equal (38-1)*500
rerun dump.cutsic.$j.lammpstrj dump x y z box yes scaled no format native
rerun dump.cutsic.18500.lammpstrj dump x y z box yes scaled no format native
Memory usage per processor = 103.568 Mbytes
Step Temp E_pair E_mol TotEng Press Volume 
   18500     327.4678   -1033491.4            0   -1026551.4    39616.935      2026946 
Loop time of 10.4417 on 1 procs for 1 steps with 163956 atoms

Pair  time (%) = 0 (0)
Neigh time (%) = 0 (0)
Comm  time (%) = 0 (0)
Outpt time (%) = 0 (0)
Other time (%) = 10.4417 (100)

Nlocal:    163956 ave 163956 max 163956 min
Histogram: 1 0 0 0 0 0 0 0 0 0
Nghost:    42799 ave 42799 max 42799 min
Histogram: 1 0 0 0 0 0 0 0 0 0
Neighs:    0 ave 0 max 0 min
Histogram: 1 0 0 0 0 0 0 0 0 0
FullNghs:  8.07048e+06 ave 8.07048e+06 max 8.07048e+06 min
Histogram: 1 0 0 0 0 0 0 0 0 0

Total # of neighbors = 8070480
Ave neighs/atom = 49.2235
Neighbor list builds = 0
Dangerous builds = 0
next i
jump SELF loop
variable i loop 801
variable j equal ($i-1)*500
variable j equal (39-1)*500
rerun dump.cutsic.$j.lammpstrj dump x y z box yes scaled no format native
rerun dump.cutsic.19000.lammpstrj dump x y z box yes scaled no format native
Memory usage per processor = 103.568 Mbytes
Step Temp E_pair E_mol TotEng Press Volume 
   19000     327.4678   -1033295.8            0   -1026355.9    42256.055    2025331.5 
Loop time of 10.7157 on 1 procs for 1 steps with 163956 atoms

Pair  time (%) = 0 (0)
Neigh time (%) = 0 (0)
Comm  time (%) = 0 (0)
Outpt time (%) = 0 (0)
Other time (%) = 10.7157 (100)

Nlocal:    163956 ave 163956 max 163956 min
Histogram: 1 0 0 0 0 0 0 0 0 0
Nghost:    42593 ave 42593 max 42593 min
Histogram: 1 0 0 0 0 0 0 0 0 0
Neighs:    0 ave 0 max 0 min
Histogram: 1 0 0 0 0 0 0 0 0 0
FullNghs:  8.07523e+06 ave 8.07523e+06 max 8.07523e+06 min
Histogram: 1 0 0 0 0 0 0 0 0 0

Total # of neighbors = 8075232
Ave neighs/atom = 49.2524
Neighbor list builds = 0
Dangerous builds = 0
next i
jump SELF loop
variable i loop 801
variable j equal ($i-1)*500
variable j equal (40-1)*500
rerun dump.cutsic.$j.lammpstrj dump x y z box yes scaled no format native
rerun dump.cutsic.19500.lammpstrj dump x y z box yes scaled no format native
Memory usage per processor = 103.568 Mbytes
Step Temp E_pair E_mol TotEng Press Volume 
   19500     327.4678   -1033104.5            0   -1026164.5    44822.188    2023716.9 
Loop time of 10.8135 on 1 procs for 1 steps with 163956 atoms

Pair  time (%) = 0 (0)
Neigh time (%) = 0 (0)
Comm  time (%) = 0 (0)
Outpt time (%) = 0 (0)
Other time (%) = 10.8135 (100)

Nlocal:    163956 ave 163956 max 163956 min
Histogram: 1 0 0 0 0 0 0 0 0 0
Nghost:    42384 ave 42384 max 42384 min
Histogram: 1 0 0 0 0 0 0 0 0 0
Neighs:    0 ave 0 max 0 min
Histogram: 1 0 0 0 0 0 0 0 0 0
FullNghs:  8.07764e+06 ave 8.07764e+06 max 8.07764e+06 min
Histogram: 1 0 0 0 0 0 0 0 0 0

Total # of neighbors = 8077642
Ave neighs/atom = 49.2671
Neighbor list builds = 0
Dangerous builds = 0
next i
jump SELF loop
variable i loop 801
variable j equal ($i-1)*500
variable j equal (41-1)*500
rerun dump.cutsic.$j.lammpstrj dump x y z box yes scaled no format native
rerun dump.cutsic.20000.lammpstrj dump x y z box yes scaled no format native
Memory usage per processor = 103.568 Mbytes
Step Temp E_pair E_mol TotEng Press Volume 
   20000     327.4678   -1032894.4            0   -1025954.4    46400.545    2022102.3 
Loop time of 10.4633 on 1 procs for 1 steps with 163956 atoms

Pair  time (%) = 0 (0)
Neigh time (%) = 0 (0)
Comm  time (%) = 0 (0)
Outpt time (%) = 0 (0)
Other time (%) = 10.4633 (100)

Nlocal:    163956 ave 163956 max 163956 min
Histogram: 1 0 0 0 0 0 0 0 0 0
Nghost:    42481 ave 42481 max 42481 min
Histogram: 1 0 0 0 0 0 0 0 0 0
Neighs:    0 ave 0 max 0 min
Histogram: 1 0 0 0 0 0 0 0 0 0
FullNghs:  8.07948e+06 ave 8.07948e+06 max 8.07948e+06 min
Histogram: 1 0 0 0 0 0 0 0 0 0

Total # of neighbors = 8079478
Ave neighs/atom = 49.2783
Neighbor list builds = 0
Dangerous builds = 0
next i
jump SELF loop
variable i loop 801
variable j equal ($i-1)*500
variable j equal (42-1)*500
rerun dump.cutsic.$j.lammpstrj dump x y z box yes scaled no format native
rerun dump.cutsic.20500.lammpstrj dump x y z box yes scaled no format native
Memory usage per processor = 103.568 Mbytes
Step Temp E_pair E_mol TotEng Press Volume 
   20500     327.4678   -1032656.5            0   -1025716.6    46733.214    2020487.7 
Loop time of 10.5437 on 1 procs for 1 steps with 163956 atoms

Pair  time (%) = 0 (0)
Neigh time (%) = 0 (0)
Comm  time (%) = 0 (0)
Outpt time (%) = 0 (0)
Other time (%) = 10.5437 (100)

Nlocal:    163956 ave 163956 max 163956 min
Histogram: 1 0 0 0 0 0 0 0 0 0
Nghost:    42766 ave 42766 max 42766 min
Histogram: 1 0 0 0 0 0 0 0 0 0
Neighs:    0 ave 0 max 0 min
Histogram: 1 0 0 0 0 0 0 0 0 0
FullNghs:  8.08113e+06 ave 8.08113e+06 max 8.08113e+06 min
Histogram: 1 0 0 0 0 0 0 0 0 0

Total # of neighbors = 8081128
Ave neighs/atom = 49.2884
Neighbor list builds = 0
Dangerous builds = 0
next i
jump SELF loop
variable i loop 801
variable j equal ($i-1)*500
variable j equal (43-1)*500
rerun dump.cutsic.$j.lammpstrj dump x y z box yes scaled no format native
rerun dump.cutsic.21000.lammpstrj dump x y z box yes scaled no format native
Memory usage per processor = 103.568 Mbytes
Step Temp E_pair E_mol TotEng Press Volume 
   21000     327.4678     -1032407            0     -1025467    46336.862    2018873.2 
Loop time of 10.9443 on 1 procs for 1 steps with 163956 atoms

Pair  time (%) = 0 (0)
Neigh time (%) = 0 (0)
Comm  time (%) = 0 (0)
Outpt time (%) = 0 (0)
Other time (%) = 10.9443 (100)

Nlocal:    163956 ave 163956 max 163956 min
Histogram: 1 0 0 0 0 0 0 0 0 0
Nghost:    42663 ave 42663 max 42663 min
Histogram: 1 0 0 0 0 0 0 0 0 0
Neighs:    0 ave 0 max 0 min
Histogram: 1 0 0 0 0 0 0 0 0 0
FullNghs:  8.07671e+06 ave 8.07671e+06 max 8.07671e+06 min
Histogram: 1 0 0 0 0 0 0 0 0 0

Total # of neighbors = 8076708
Ave neighs/atom = 49.2614
Neighbor list builds = 0
Dangerous builds = 0
next i
jump SELF loop
variable i loop 801
variable j equal ($i-1)*500
variable j equal (44-1)*500
rerun dump.cutsic.$j.lammpstrj dump x y z box yes scaled no format native
rerun dump.cutsic.21500.lammpstrj dump x y z box yes scaled no format native
Memory usage per processor = 103.568 Mbytes
Step Temp E_pair E_mol TotEng Press Volume 
   21500     327.4678   -1032130.9            0   -1025190.9    46736.292    2017258.6 
Loop time of 11.4753 on 1 procs for 1 steps with 163956 atoms

Pair  time (%) = 0 (0)
Neigh time (%) = 0 (0)
Comm  time (%) = 0 (0)
Outpt time (%) = 0 (0)
Other time (%) = 11.4753 (100)

Nlocal:    163956 ave 163956 max 163956 min
Histogram: 1 0 0 0 0 0 0 0 0 0
Nghost:    42292 ave 42292 max 42292 min
Histogram: 1 0 0 0 0 0 0 0 0 0
Neighs:    0 ave 0 max 0 min
Histogram: 1 0 0 0 0 0 0 0 0 0
FullNghs:  8.08132e+06 ave 8.08132e+06 max 8.08132e+06 min
Histogram: 1 0 0 0 0 0 0 0 0 0

Total # of neighbors = 8081320
Ave neighs/atom = 49.2896
Neighbor list builds = 0
Dangerous builds = 0
next i
jump SELF loop
variable i loop 801
variable j equal ($i-1)*500
variable j equal (45-1)*500
rerun dump.cutsic.$j.lammpstrj dump x y z box yes scaled no format native
rerun dump.cutsic.22000.lammpstrj dump x y z box yes scaled no format native
Memory usage per processor = 103.568 Mbytes
Step Temp E_pair E_mol TotEng Press Volume 
   22000     327.4678   -1031872.2            0   -1024932.2    48483.796      2015644 
Loop time of 10.9418 on 1 procs for 1 steps with 163956 atoms

Pair  time (%) = 0 (0)
Neigh time (%) = 0 (0)
Comm  time (%) = 0 (0)
Outpt time (%) = 0 (0)
Other time (%) = 10.9418 (100)

Nlocal:    163956 ave 163956 max 163956 min
Histogram: 1 0 0 0 0 0 0 0 0 0
Nghost:    42173 ave 42173 max 42173 min
Histogram: 1 0 0 0 0 0 0 0 0 0
Neighs:    0 ave 0 max 0 min
Histogram: 1 0 0 0 0 0 0 0 0 0
FullNghs:  8.08384e+06 ave 8.08384e+06 max 8.08384e+06 min
Histogram: 1 0 0 0 0 0 0 0 0 0

Total # of neighbors = 8083844
Ave neighs/atom = 49.305
Neighbor list builds = 0
Dangerous builds = 0
next i
jump SELF loop
variable i loop 801
variable j equal ($i-1)*500
variable j equal (46-1)*500
rerun dump.cutsic.$j.lammpstrj dump x y z box yes scaled no format native
rerun dump.cutsic.22500.lammpstrj dump x y z box yes scaled no format native
Memory usage per processor = 103.568 Mbytes
Step Temp E_pair E_mol TotEng Press Volume 
   22500     327.4678   -1031592.4            0   -1024652.4    52813.446    2014029.5 
Loop time of 10.4627 on 1 procs for 1 steps with 163956 atoms

Pair  time (%) = 0 (0)
Neigh time (%) = 0 (0)
Comm  time (%) = 0 (0)
Outpt time (%) = 0 (0)
Other time (%) = 10.4627 (100)

Nlocal:    163956 ave 163956 max 163956 min
Histogram: 1 0 0 0 0 0 0 0 0 0
Nghost:    42300 ave 42300 max 42300 min
Histogram: 1 0 0 0 0 0 0 0 0 0
Neighs:    0 ave 0 max 0 min
Histogram: 1 0 0 0 0 0 0 0 0 0
FullNghs:  8.09018e+06 ave 8.09018e+06 max 8.09018e+06 min
Histogram: 1 0 0 0 0 0 0 0 0 0

Total # of neighbors = 8090176
Ave neighs/atom = 49.3436
Neighbor list builds = 0
Dangerous builds = 0
next i
jump SELF loop
variable i loop 801
variable j equal ($i-1)*500
variable j equal (47-1)*500
rerun dump.cutsic.$j.lammpstrj dump x y z box yes scaled no format native
rerun dump.cutsic.23000.lammpstrj dump x y z box yes scaled no format native
Memory usage per processor = 104.568 Mbytes
Step Temp E_pair E_mol TotEng Press Volume 
   23000     327.4678   -1031303.1            0   -1024363.1    56823.061    2012414.9 
Loop time of 11.2949 on 1 procs for 1 steps with 163956 atoms

Pair  time (%) = 0 (0)
Neigh time (%) = 0 (0)
Comm  time (%) = 0 (0)
Outpt time (%) = 0 (0)
Other time (%) = 11.2949 (100)

Nlocal:    163956 ave 163956 max 163956 min
Histogram: 1 0 0 0 0 0 0 0 0 0
Nghost:    42559 ave 42559 max 42559 min
Histogram: 1 0 0 0 0 0 0 0 0 0
Neighs:    0 ave 0 max 0 min
Histogram: 1 0 0 0 0 0 0 0 0 0
FullNghs:  8.09567e+06 ave 8.09567e+06 max 8.09567e+06 min
Histogram: 1 0 0 0 0 0 0 0 0 0

Total # of neighbors = 8095668
Ave neighs/atom = 49.3771
Neighbor list builds = 0
Dangerous builds = 0
next i
jump SELF loop
variable i loop 801
variable j equal ($i-1)*500
variable j equal (48-1)*500
rerun dump.cutsic.$j.lammpstrj dump x y z box yes scaled no format native
rerun dump.cutsic.23500.lammpstrj dump x y z box yes scaled no format native
Memory usage per processor = 104.568 Mbytes
Step Temp E_pair E_mol TotEng Press Volume 
   23500     327.4678     -1031063            0     -1024123    60808.767    2010800.3 
Loop time of 10.5547 on 1 procs for 1 steps with 163956 atoms

Pair  time (%) = 0 (0)
Neigh time (%) = 0 (0)
Comm  time (%) = 0 (0)
Outpt time (%) = 0 (0)
Other time (%) = 10.5547 (100)

Nlocal:    163956 ave 163956 max 163956 min
Histogram: 1 0 0 0 0 0 0 0 0 0
Nghost:    42775 ave 42775 max 42775 min
Histogram: 1 0 0 0 0 0 0 0 0 0
Neighs:    0 ave 0 max 0 min
Histogram: 1 0 0 0 0 0 0 0 0 0
FullNghs:  8.1021e+06 ave 8.1021e+06 max 8.1021e+06 min
Histogram: 1 0 0 0 0 0 0 0 0 0

Total # of neighbors = 8102102
Ave neighs/atom = 49.4163
Neighbor list builds = 0
Dangerous builds = 0
next i
jump SELF loop
variable i loop 801
variable j equal ($i-1)*500
variable j equal (49-1)*500
rerun dump.cutsic.$j.lammpstrj dump x y z box yes scaled no format native
rerun dump.cutsic.24000.lammpstrj dump x y z box yes scaled no format native
Memory usage per processor = 104.568 Mbytes
Step Temp E_pair E_mol TotEng Press Volume 
   24000     327.4678   -1030751.2            0   -1023811.3    62800.982    2009185.7 
Loop time of 10.4273 on 1 procs for 1 steps with 163956 atoms

Pair  time (%) = 0 (0)
Neigh time (%) = 0 (0)
Comm  time (%) = 0 (0)
Outpt time (%) = 0 (0)
Other time (%) = 10.4273 (100)

Nlocal:    163956 ave 163956 max 163956 min
Histogram: 1 0 0 0 0 0 0 0 0 0
Nghost:    42605 ave 42605 max 42605 min
Histogram: 1 0 0 0 0 0 0 0 0 0
Neighs:    0 ave 0 max 0 min
Histogram: 1 0 0 0 0 0 0 0 0 0
FullNghs:  8.10365e+06 ave 8.10365e+06 max 8.10365e+06 min
Histogram: 1 0 0 0 0 0 0 0 0 0

Total # of neighbors = 8103652
Ave neighs/atom = 49.4258
Neighbor list builds = 0
Dangerous builds = 0
next i
jump SELF loop
variable i loop 801
variable j equal ($i-1)*500
variable j equal (50-1)*500
rerun dump.cutsic.$j.lammpstrj dump x y z box yes scaled no format native
rerun dump.cutsic.24500.lammpstrj dump x y z box yes scaled no format native
Memory usage per processor = 104.568 Mbytes
Step Temp E_pair E_mol TotEng Press Volume 
   24500     327.4678   -1030474.7            0   -1023534.7    63110.183    2007571.2 
Loop time of 11.089 on 1 procs for 1 steps with 163956 atoms

Pair  time (%) = 0 (0)
Neigh time (%) = 0 (0)
Comm  time (%) = 0 (0)
Outpt time (%) = 0 (0)
Other time (%) = 11.089 (100)

Nlocal:    163956 ave 163956 max 163956 min
Histogram: 1 0 0 0 0 0 0 0 0 0
Nghost:    42443 ave 42443 max 42443 min
Histogram: 1 0 0 0 0 0 0 0 0 0
Neighs:    0 ave 0 max 0 min
Histogram: 1 0 0 0 0 0 0 0 0 0
FullNghs:  8.1034e+06 ave 8.1034e+06 max 8.1034e+06 min
Histogram: 1 0 0 0 0 0 0 0 0 0

Total # of neighbors = 8103400
Ave neighs/atom = 49.4242
Neighbor list builds = 0
Dangerous builds = 0
next i
jump SELF loop
variable i loop 801
variable j equal ($i-1)*500
variable j equal (51-1)*500
rerun dump.cutsic.$j.lammpstrj dump x y z box yes scaled no format native
rerun dump.cutsic.25000.lammpstrj dump x y z box yes scaled no format native
Memory usage per processor = 104.568 Mbytes
Step Temp E_pair E_mol TotEng Press Volume 
   25000     327.4678   -1030167.9            0   -1023227.9    61500.202    2005956.6 
Loop time of 10.5344 on 1 procs for 1 steps with 163956 atoms

Pair  time (%) = 0 (0)
Neigh time (%) = 0 (0)
Comm  time (%) = 0 (0)
Outpt time (%) = 0 (0)
Other time (%) = 10.5344 (100)

Nlocal:    163956 ave 163956 max 163956 min
Histogram: 1 0 0 0 0 0 0 0 0 0
Nghost:    42497 ave 42497 max 42497 min
Histogram: 1 0 0 0 0 0 0 0 0 0
Neighs:    0 ave 0 max 0 min
Histogram: 1 0 0 0 0 0 0 0 0 0
FullNghs:  8.10379e+06 ave 8.10379e+06 max 8.10379e+06 min
Histogram: 1 0 0 0 0 0 0 0 0 0

Total # of neighbors = 8103790
Ave neighs/atom = 49.4266
Neighbor list builds = 0
Dangerous builds = 0
next i
jump SELF loop
variable i loop 801
variable j equal ($i-1)*500
variable j equal (52-1)*500
rerun dump.cutsic.$j.lammpstrj dump x y z box yes scaled no format native
rerun dump.cutsic.25500.lammpstrj dump x y z box yes scaled no format native
Memory usage per processor = 104.568 Mbytes
Step Temp E_pair E_mol TotEng Press Volume 
   25500     327.4678   -1029866.9            0     -1022927    60165.139      2004342 
Loop time of 10.8666 on 1 procs for 1 steps with 163956 atoms

Pair  time (%) = 0 (0)
Neigh time (%) = 0 (0)
Comm  time (%) = 0 (0)
Outpt time (%) = 0 (0)
Other time (%) = 10.8666 (100)

Nlocal:    163956 ave 163956 max 163956 min
Histogram: 1 0 0 0 0 0 0 0 0 0
Nghost:    42695 ave 42695 max 42695 min
Histogram: 1 0 0 0 0 0 0 0 0 0
Neighs:    0 ave 0 max 0 min
Histogram: 1 0 0 0 0 0 0 0 0 0
FullNghs:  8.10222e+06 ave 8.10222e+06 max 8.10222e+06 min
Histogram: 1 0 0 0 0 0 0 0 0 0

Total # of neighbors = 8102222
Ave neighs/atom = 49.4171
Neighbor list builds = 0
Dangerous builds = 0
next i
jump SELF loop
variable i loop 801
variable j equal ($i-1)*500
variable j equal (53-1)*500
rerun dump.cutsic.$j.lammpstrj dump x y z box yes scaled no format native
rerun dump.cutsic.26000.lammpstrj dump x y z box yes scaled no format native
Memory usage per processor = 104.568 Mbytes
Step Temp E_pair E_mol TotEng Press Volume 
   26000     327.4678   -1029564.3            0   -1022624.3    59056.767    2002727.5 
Loop time of 10.7094 on 1 procs for 1 steps with 163956 atoms

Pair  time (%) = 0 (0)
Neigh time (%) = 0 (0)
Comm  time (%) = 0 (0)
Outpt time (%) = 0 (0)
Other time (%) = 10.7094 (100)

Nlocal:    163956 ave 163956 max 163956 min
Histogram: 1 0 0 0 0 0 0 0 0 0
Nghost:    42655 ave 42655 max 42655 min
Histogram: 1 0 0 0 0 0 0 0 0 0
Neighs:    0 ave 0 max 0 min
Histogram: 1 0 0 0 0 0 0 0 0 0
FullNghs:  8.10389e+06 ave 8.10389e+06 max 8.10389e+06 min
Histogram: 1 0 0 0 0 0 0 0 0 0

Total # of neighbors = 8103888
Ave neighs/atom = 49.4272
Neighbor list builds = 0
Dangerous builds = 0
next i
jump SELF loop
variable i loop 801
variable j equal ($i-1)*500
variable j equal (54-1)*500
rerun dump.cutsic.$j.lammpstrj dump x y z box yes scaled no format native
rerun dump.cutsic.26500.lammpstrj dump x y z box yes scaled no format native
Memory usage per processor = 104.568 Mbytes
Step Temp E_pair E_mol TotEng Press Volume 
   26500     327.4678   -1029270.3            0   -1022330.3     60162.79    2001112.9 
Loop time of 10.357 on 1 procs for 1 steps with 163956 atoms

Pair  time (%) = 0 (0)
Neigh time (%) = 0 (0)
Comm  time (%) = 0 (0)
Outpt time (%) = 0 (0)
Other time (%) = 10.357 (100)

Nlocal:    163956 ave 163956 max 163956 min
Histogram: 1 0 0 0 0 0 0 0 0 0
Nghost:    42362 ave 42362 max 42362 min
Histogram: 1 0 0 0 0 0 0 0 0 0
Neighs:    0 ave 0 max 0 min
Histogram: 1 0 0 0 0 0 0 0 0 0
FullNghs:  8.1076e+06 ave 8.1076e+06 max 8.1076e+06 min
Histogram: 1 0 0 0 0 0 0 0 0 0

Total # of neighbors = 8107600
Ave neighs/atom = 49.4499
Neighbor list builds = 0
Dangerous builds = 0
next i
jump SELF loop
variable i loop 801
variable j equal ($i-1)*500
variable j equal (55-1)*500
rerun dump.cutsic.$j.lammpstrj dump x y z box yes scaled no format native
rerun dump.cutsic.27000.lammpstrj dump x y z box yes scaled no format native
Memory usage per processor = 104.568 Mbytes
Step Temp E_pair E_mol TotEng Press Volume 
   27000     327.4678   -1028997.1            0   -1022057.1    62354.559    1999498.3 
Loop time of 10.3966 on 1 procs for 1 steps with 163956 atoms

Pair  time (%) = 0 (0)
Neigh time (%) = 0 (0)
Comm  time (%) = 0 (0)
Outpt time (%) = 0 (0)
Other time (%) = 10.3966 (100)

Nlocal:    163956 ave 163956 max 163956 min
Histogram: 1 0 0 0 0 0 0 0 0 0
Nghost:    42022 ave 42022 max 42022 min
Histogram: 1 0 0 0 0 0 0 0 0 0
Neighs:    0 ave 0 max 0 min
Histogram: 1 0 0 0 0 0 0 0 0 0
FullNghs:  8.11519e+06 ave 8.11519e+06 max 8.11519e+06 min
Histogram: 1 0 0 0 0 0 0 0 0 0

Total # of neighbors = 8115188
Ave neighs/atom = 49.4961
Neighbor list builds = 0
Dangerous builds = 0
next i
jump SELF loop
variable i loop 801
variable j equal ($i-1)*500
variable j equal (56-1)*500
rerun dump.cutsic.$j.lammpstrj dump x y z box yes scaled no format native
rerun dump.cutsic.27500.lammpstrj dump x y z box yes scaled no format native
Memory usage per processor = 104.568 Mbytes
Step Temp E_pair E_mol TotEng Press Volume 
   27500     327.4678   -1028720.5            0   -1021780.5    64691.949    1997883.7 
Loop time of 10.3813 on 1 procs for 1 steps with 163956 atoms

Pair  time (%) = 0 (0)
Neigh time (%) = 0 (0)
Comm  time (%) = 0 (0)
Outpt time (%) = 0 (0)
Other time (%) = 10.3813 (100)

Nlocal:    163956 ave 163956 max 163956 min
Histogram: 1 0 0 0 0 0 0 0 0 0
Nghost:    42156 ave 42156 max 42156 min
Histogram: 1 0 0 0 0 0 0 0 0 0
Neighs:    0 ave 0 max 0 min
Histogram: 1 0 0 0 0 0 0 0 0 0
FullNghs:  8.11816e+06 ave 8.11816e+06 max 8.11816e+06 min
Histogram: 1 0 0 0 0 0 0 0 0 0

Total # of neighbors = 8118162
Ave neighs/atom = 49.5143
Neighbor list builds = 0
Dangerous builds = 0
next i
jump SELF loop
variable i loop 801
variable j equal ($i-1)*500
variable j equal (57-1)*500
rerun dump.cutsic.$j.lammpstrj dump x y z box yes scaled no format native
rerun dump.cutsic.28000.lammpstrj dump x y z box yes scaled no format native
Memory usage per processor = 104.568 Mbytes
Step Temp E_pair E_mol TotEng Press Volume 
   28000     327.4678   -1028461.2            0   -1021521.2    66946.718    1996269.2 
Loop time of 10.5733 on 1 procs for 1 steps with 163956 atoms

Pair  time (%) = 0 (0)
Neigh time (%) = 0 (0)
Comm  time (%) = 0 (0)
Outpt time (%) = 0 (0)
Other time (%) = 10.5733 (100)

Nlocal:    163956 ave 163956 max 163956 min
Histogram: 1 0 0 0 0 0 0 0 0 0
Nghost:    42519 ave 42519 max 42519 min
Histogram: 1 0 0 0 0 0 0 0 0 0
Neighs:    0 ave 0 max 0 min
Histogram: 1 0 0 0 0 0 0 0 0 0
FullNghs:  8.12524e+06 ave 8.12524e+06 max 8.12524e+06 min
Histogram: 1 0 0 0 0 0 0 0 0 0

Total # of neighbors = 8125236
Ave neighs/atom = 49.5574
Neighbor list builds = 0
Dangerous builds = 0
next i
jump SELF loop
variable i loop 801
variable j equal ($i-1)*500
variable j equal (58-1)*500
rerun dump.cutsic.$j.lammpstrj dump x y z box yes scaled no format native
rerun dump.cutsic.28500.lammpstrj dump x y z box yes scaled no format native
Memory usage per processor = 104.568 Mbytes
Step Temp E_pair E_mol TotEng Press Volume 
   28500     327.4678   -1028191.6            0   -1021251.7    66216.145    1994654.6 
Loop time of 10.5425 on 1 procs for 1 steps with 163956 atoms

Pair  time (%) = 0 (0)
Neigh time (%) = 0 (0)
Comm  time (%) = 0 (0)
Outpt time (%) = 0 (0)
Other time (%) = 10.5425 (100)

Nlocal:    163956 ave 163956 max 163956 min
Histogram: 1 0 0 0 0 0 0 0 0 0
Nghost:    42782 ave 42782 max 42782 min
Histogram: 1 0 0 0 0 0 0 0 0 0
Neighs:    0 ave 0 max 0 min
Histogram: 1 0 0 0 0 0 0 0 0 0
FullNghs:  8.12998e+06 ave 8.12998e+06 max 8.12998e+06 min
Histogram: 1 0 0 0 0 0 0 0 0 0

Total # of neighbors = 8129982
Ave neighs/atom = 49.5864
Neighbor list builds = 0
Dangerous builds = 0
next i
jump SELF loop
variable i loop 801
variable j equal ($i-1)*500
variable j equal (59-1)*500
rerun dump.cutsic.$j.lammpstrj dump x y z box yes scaled no format native
rerun dump.cutsic.29000.lammpstrj dump x y z box yes scaled no format native
Memory usage per processor = 104.568 Mbytes
Step Temp E_pair E_mol TotEng Press Volume 
   29000     327.4678     -1028044            0     -1021104    64262.815      1993040 
Loop time of 10.6478 on 1 procs for 1 steps with 163956 atoms

Pair  time (%) = 0 (0)
Neigh time (%) = 0 (0)
Comm  time (%) = 0 (0)
Outpt time (%) = 0 (0)
Other time (%) = 10.6478 (100)

Nlocal:    163956 ave 163956 max 163956 min
Histogram: 1 0 0 0 0 0 0 0 0 0
Nghost:    42594 ave 42594 max 42594 min
Histogram: 1 0 0 0 0 0 0 0 0 0
Neighs:    0 ave 0 max 0 min
Histogram: 1 0 0 0 0 0 0 0 0 0
FullNghs:  8.13142e+06 ave 8.13142e+06 max 8.13142e+06 min
Histogram: 1 0 0 0 0 0 0 0 0 0

Total # of neighbors = 8131422
Ave neighs/atom = 49.5951
Neighbor list builds = 0
Dangerous builds = 0
next i
jump SELF loop
variable i loop 801
variable j equal ($i-1)*500
variable j equal (60-1)*500
rerun dump.cutsic.$j.lammpstrj dump x y z box yes scaled no format native
rerun dump.cutsic.29500.lammpstrj dump x y z box yes scaled no format native
Memory usage per processor = 104.568 Mbytes
Step Temp E_pair E_mol TotEng Press Volume 
   29500     327.4678   -1028182.2            0   -1021242.2    59667.072    1991425.4 
Loop time of 10.7013 on 1 procs for 1 steps with 163956 atoms

Pair  time (%) = 0 (0)
Neigh time (%) = 0 (0)
Comm  time (%) = 0 (0)
Outpt time (%) = 0 (0)
Other time (%) = 10.7013 (100)

Nlocal:    163956 ave 163956 max 163956 min
Histogram: 1 0 0 0 0 0 0 0 0 0
Nghost:    42345 ave 42345 max 42345 min
Histogram: 1 0 0 0 0 0 0 0 0 0
Neighs:    0 ave 0 max 0 min
Histogram: 1 0 0 0 0 0 0 0 0 0
FullNghs:  8.123e+06 ave 8.123e+06 max 8.123e+06 min
Histogram: 1 0 0 0 0 0 0 0 0 0

Total # of neighbors = 8122996
Ave neighs/atom = 49.5438
Neighbor list builds = 0
Dangerous builds = 0
next i
jump SELF loop
variable i loop 801
variable j equal ($i-1)*500
variable j equal (61-1)*500
rerun dump.cutsic.$j.lammpstrj dump x y z box yes scaled no format native
rerun dump.cutsic.30000.lammpstrj dump x y z box yes scaled no format native
Memory usage per processor = 104.568 Mbytes
Step Temp E_pair E_mol TotEng Press Volume 
   30000     327.4678   -1028648.3            0   -1021708.3    50042.248    1989810.9 
Loop time of 10.7513 on 1 procs for 1 steps with 163956 atoms

Pair  time (%) = 0 (0)
Neigh time (%) = 0 (0)
Comm  time (%) = 0 (0)
Outpt time (%) = 0 (0)
Other time (%) = 10.7513 (100)

Nlocal:    163956 ave 163956 max 163956 min
Histogram: 1 0 0 0 0 0 0 0 0 0
Nghost:    42397 ave 42397 max 42397 min
Histogram: 1 0 0 0 0 0 0 0 0 0
Neighs:    0 ave 0 max 0 min
Histogram: 1 0 0 0 0 0 0 0 0 0
FullNghs:  8.10183e+06 ave 8.10183e+06 max 8.10183e+06 min
Histogram: 1 0 0 0 0 0 0 0 0 0

Total # of neighbors = 8101830
Ave neighs/atom = 49.4147
Neighbor list builds = 0
Dangerous builds = 0
next i
jump SELF loop
variable i loop 801
variable j equal ($i-1)*500
variable j equal (62-1)*500
rerun dump.cutsic.$j.lammpstrj dump x y z box yes scaled no format native
rerun dump.cutsic.30500.lammpstrj dump x y z box yes scaled no format native
Memory usage per processor = 104.568 Mbytes
Step Temp E_pair E_mol TotEng Press Volume 
   30500     327.4678   -1028935.9            0   -1021995.9    42515.961    1988196.3 
Loop time of 10.8381 on 1 procs for 1 steps with 163956 atoms

Pair  time (%) = 0 (0)
Neigh time (%) = 0 (0)
Comm  time (%) = 0 (0)
Outpt time (%) = 0 (0)
Other time (%) = 10.8381 (100)

Nlocal:    163956 ave 163956 max 163956 min
Histogram: 1 0 0 0 0 0 0 0 0 0
Nghost:    42589 ave 42589 max 42589 min
Histogram: 1 0 0 0 0 0 0 0 0 0
Neighs:    0 ave 0 max 0 min
Histogram: 1 0 0 0 0 0 0 0 0 0
FullNghs:  8.09172e+06 ave 8.09172e+06 max 8.09172e+06 min
Histogram: 1 0 0 0 0 0 0 0 0 0

Total # of neighbors = 8091720
Ave neighs/atom = 49.353
Neighbor list builds = 0
Dangerous builds = 0
next i
jump SELF loop
variable i loop 801
variable j equal ($i-1)*500
variable j equal (63-1)*500
rerun dump.cutsic.$j.lammpstrj dump x y z box yes scaled no format native
rerun dump.cutsic.31000.lammpstrj dump x y z box yes scaled no format native
Memory usage per processor = 104.568 Mbytes
Step Temp E_pair E_mol TotEng Press Volume 
   31000     327.4678   -1029164.9            0   -1022224.9    38343.549    1986581.7 
Loop time of 10.4166 on 1 procs for 1 steps with 163956 atoms

Pair  time (%) = 0 (0)
Neigh time (%) = 0 (0)
Comm  time (%) = 0 (0)
Outpt time (%) = 0 (0)
Other time (%) = 10.4166 (100)

Nlocal:    163956 ave 163956 max 163956 min
Histogram: 1 0 0 0 0 0 0 0 0 0
Nghost:    42635 ave 42635 max 42635 min
Histogram: 1 0 0 0 0 0 0 0 0 0
Neighs:    0 ave 0 max 0 min
Histogram: 1 0 0 0 0 0 0 0 0 0
FullNghs:  8.08858e+06 ave 8.08858e+06 max 8.08858e+06 min
Histogram: 1 0 0 0 0 0 0 0 0 0

Total # of neighbors = 8088584
Ave neighs/atom = 49.3339
Neighbor list builds = 0
Dangerous builds = 0
next i
jump SELF loop
variable i loop 801
variable j equal ($i-1)*500
variable j equal (64-1)*500
rerun dump.cutsic.$j.lammpstrj dump x y z box yes scaled no format native
rerun dump.cutsic.31500.lammpstrj dump x y z box yes scaled no format native
Memory usage per processor = 104.568 Mbytes
Step Temp E_pair E_mol TotEng Press Volume 
   31500     327.4678   -1029289.7            0   -1022349.7    40741.004    1984967.2 
Loop time of 10.734 on 1 procs for 1 steps with 163956 atoms

Pair  time (%) = 0 (0)
Neigh time (%) = 0 (0)
Comm  time (%) = 0 (0)
Outpt time (%) = 0 (0)
Other time (%) = 10.734 (100)

Nlocal:    163956 ave 163956 max 163956 min
Histogram: 1 0 0 0 0 0 0 0 0 0
Nghost:    42524 ave 42524 max 42524 min
Histogram: 1 0 0 0 0 0 0 0 0 0
Neighs:    0 ave 0 max 0 min
Histogram: 1 0 0 0 0 0 0 0 0 0
FullNghs:  8.09972e+06 ave 8.09972e+06 max 8.09972e+06 min
Histogram: 1 0 0 0 0 0 0 0 0 0

Total # of neighbors = 8099722
Ave neighs/atom = 49.4018
Neighbor list builds = 0
Dangerous builds = 0
next i
jump SELF loop
variable i loop 801
variable j equal ($i-1)*500
variable j equal (65-1)*500
rerun dump.cutsic.$j.lammpstrj dump x y z box yes scaled no format native
rerun dump.cutsic.32000.lammpstrj dump x y z box yes scaled no format native
Memory usage per processor = 104.568 Mbytes
Step Temp E_pair E_mol TotEng Press Volume 
   32000     327.4678   -1029330.2            0   -1022390.2    43419.103    1983352.6 
Loop time of 10.7841 on 1 procs for 1 steps with 163956 atoms

Pair  time (%) = 0 (0)
Neigh time (%) = 0 (0)
Comm  time (%) = 0 (0)
Outpt time (%) = 0 (0)
Other time (%) = 10.7841 (100)

Nlocal:    163956 ave 163956 max 163956 min
Histogram: 1 0 0 0 0 0 0 0 0 0
Nghost:    42336 ave 42336 max 42336 min
Histogram: 1 0 0 0 0 0 0 0 0 0
Neighs:    0 ave 0 max 0 min
Histogram: 1 0 0 0 0 0 0 0 0 0
FullNghs:  8.10479e+06 ave 8.10479e+06 max 8.10479e+06 min
Histogram: 1 0 0 0 0 0 0 0 0 0

Total # of neighbors = 8104792
Ave neighs/atom = 49.4327
Neighbor list builds = 0
Dangerous builds = 0
next i
jump SELF loop
variable i loop 801
variable j equal ($i-1)*500
variable j equal (66-1)*500
rerun dump.cutsic.$j.lammpstrj dump x y z box yes scaled no format native
rerun dump.cutsic.32500.lammpstrj dump x y z box yes scaled no format native
Memory usage per processor = 104.568 Mbytes
Step Temp E_pair E_mol TotEng Press Volume 
   32500     327.4678   -1029423.2            0   -1022483.2     44677.42      1981738 
Loop time of 10.5865 on 1 procs for 1 steps with 163956 atoms

Pair  time (%) = 0 (0)
Neigh time (%) = 0 (0)
Comm  time (%) = 0 (0)
Outpt time (%) = 0 (0)
Other time (%) = 10.5865 (100)

Nlocal:    163956 ave 163956 max 163956 min
Histogram: 1 0 0 0 0 0 0 0 0 0
Nghost:    42361 ave 42361 max 42361 min
Histogram: 1 0 0 0 0 0 0 0 0 0
Neighs:    0 ave 0 max 0 min
Histogram: 1 0 0 0 0 0 0 0 0 0
FullNghs:  8.09901e+06 ave 8.09901e+06 max 8.09901e+06 min
Histogram: 1 0 0 0 0 0 0 0 0 0

Total # of neighbors = 8099014
Ave neighs/atom = 49.3975
Neighbor list builds = 0
Dangerous builds = 0
next i
jump SELF loop
variable i loop 801
variable j equal ($i-1)*500
variable j equal (67-1)*500
rerun dump.cutsic.$j.lammpstrj dump x y z box yes scaled no format native
rerun dump.cutsic.33000.lammpstrj dump x y z box yes scaled no format native
Memory usage per processor = 104.568 Mbytes
Step Temp E_pair E_mol TotEng Press Volume 
   33000     327.4678     -1029462            0   -1022522.1    44413.656    1980123.4 
Loop time of 10.6819 on 1 procs for 1 steps with 163956 atoms

Pair  time (%) = 0 (0)
Neigh time (%) = 0 (0)
Comm  time (%) = 0 (0)
Outpt time (%) = 0 (0)
Other time (%) = 10.6819 (100)

Nlocal:    163956 ave 163956 max 163956 min
Histogram: 1 0 0 0 0 0 0 0 0 0
Nghost:    42520 ave 42520 max 42520 min
Histogram: 1 0 0 0 0 0 0 0 0 0
Neighs:    0 ave 0 max 0 min
Histogram: 1 0 0 0 0 0 0 0 0 0
FullNghs:  8.09865e+06 ave 8.09865e+06 max 8.09865e+06 min
Histogram: 1 0 0 0 0 0 0 0 0 0

Total # of neighbors = 8098648
Ave neighs/atom = 49.3953
Neighbor list builds = 0
Dangerous builds = 0
next i
jump SELF loop
variable i loop 801
variable j equal ($i-1)*500
variable j equal (68-1)*500
rerun dump.cutsic.$j.lammpstrj dump x y z box yes scaled no format native
rerun dump.cutsic.33500.lammpstrj dump x y z box yes scaled no format native
Memory usage per processor = 104.568 Mbytes
Step Temp E_pair E_mol TotEng Press Volume 
   33500     327.4678   -1029445.1            0   -1022505.1    44711.446    1978508.9 
Loop time of 10.4667 on 1 procs for 1 steps with 163956 atoms

Pair  time (%) = 0 (0)
Neigh time (%) = 0 (0)
Comm  time (%) = 0 (0)
Outpt time (%) = 0 (0)
Other time (%) = 10.4667 (100)

Nlocal:    163956 ave 163956 max 163956 min
Histogram: 1 0 0 0 0 0 0 0 0 0
Nghost:    42667 ave 42667 max 42667 min
Histogram: 1 0 0 0 0 0 0 0 0 0
Neighs:    0 ave 0 max 0 min
Histogram: 1 0 0 0 0 0 0 0 0 0
FullNghs:  8.09841e+06 ave 8.09841e+06 max 8.09841e+06 min
Histogram: 1 0 0 0 0 0 0 0 0 0

Total # of neighbors = 8098412
Ave neighs/atom = 49.3938
Neighbor list builds = 0
Dangerous builds = 0
next i
jump SELF loop
variable i loop 801
variable j equal ($i-1)*500
variable j equal (69-1)*500
rerun dump.cutsic.$j.lammpstrj dump x y z box yes scaled no format native
rerun dump.cutsic.34000.lammpstrj dump x y z box yes scaled no format native
Memory usage per processor = 104.568 Mbytes
Step Temp E_pair E_mol TotEng Press Volume 
   34000     327.4678     -1029410            0     -1022470     43624.86    1981756.3 
Loop time of 10.0586 on 1 procs for 1 steps with 163956 atoms

Pair  time (%) = 0 (0)
Neigh time (%) = 0 (0)
Comm  time (%) = 0 (0)
Outpt time (%) = 0 (0)
Other time (%) = 10.0586 (100)

Nlocal:    163956 ave 163956 max 163956 min
Histogram: 1 0 0 0 0 0 0 0 0 0
Nghost:    42626 ave 42626 max 42626 min
Histogram: 1 0 0 0 0 0 0 0 0 0
Neighs:    0 ave 0 max 0 min
Histogram: 1 0 0 0 0 0 0 0 0 0
FullNghs:  8.09769e+06 ave 8.09769e+06 max 8.09769e+06 min
Histogram: 1 0 0 0 0 0 0 0 0 0

Total # of neighbors = 8097692
Ave neighs/atom = 49.3894
Neighbor list builds = 0
Dangerous builds = 0
next i
jump SELF loop
variable i loop 801
variable j equal ($i-1)*500
variable j equal (70-1)*500
rerun dump.cutsic.$j.lammpstrj dump x y z box yes scaled no format native
rerun dump.cutsic.34500.lammpstrj dump x y z box yes scaled no format native
Memory usage per processor = 104.568 Mbytes
Step Temp E_pair E_mol TotEng Press Volume 
   34500     327.4678   -1029262.6            0   -1022322.6    43002.916    1980991.6 
Loop time of 10.4273 on 1 procs for 1 steps with 163956 atoms

Pair  time (%) = 0 (0)
Neigh time (%) = 0 (0)
Comm  time (%) = 0 (0)
Outpt time (%) = 0 (0)
Other time (%) = 10.4273 (100)

Nlocal:    163956 ave 163956 max 163956 min
Histogram: 1 0 0 0 0 0 0 0 0 0
Nghost:    42535 ave 42535 max 42535 min
Histogram: 1 0 0 0 0 0 0 0 0 0
Neighs:    0 ave 0 max 0 min
Histogram: 1 0 0 0 0 0 0 0 0 0
FullNghs:  8.10218e+06 ave 8.10218e+06 max 8.10218e+06 min
Histogram: 1 0 0 0 0 0 0 0 0 0

Total # of neighbors = 8102176
Ave neighs/atom = 49.4168
Neighbor list builds = 0
Dangerous builds = 0
next i
jump SELF loop
variable i loop 801
variable j equal ($i-1)*500
variable j equal (71-1)*500
rerun dump.cutsic.$j.lammpstrj dump x y z box yes scaled no format native
rerun dump.cutsic.35000.lammpstrj dump x y z box yes scaled no format native
Memory usage per processor = 104.568 Mbytes
Step Temp E_pair E_mol TotEng Press Volume 
   35000     327.4678   -1029192.3            0   -1022252.3    44420.294    1992153.9 
Loop time of 10.1743 on 1 procs for 1 steps with 163956 atoms

Pair  time (%) = 0 (0)
Neigh time (%) = 0 (0)
Comm  time (%) = 0 (0)
Outpt time (%) = 0 (0)
Other time (%) = 10.1743 (100)

Nlocal:    163956 ave 163956 max 163956 min
Histogram: 1 0 0 0 0 0 0 0 0 0
Nghost:    42563 ave 42563 max 42563 min
Histogram: 1 0 0 0 0 0 0 0 0 0
Neighs:    0 ave 0 max 0 min
Histogram: 1 0 0 0 0 0 0 0 0 0
FullNghs:  8.10329e+06 ave 8.10329e+06 max 8.10329e+06 min
Histogram: 1 0 0 0 0 0 0 0 0 0

Total # of neighbors = 8103292
Ave neighs/atom = 49.4236
Neighbor list builds = 0
Dangerous builds = 0
next i
jump SELF loop
variable i loop 801
variable j equal ($i-1)*500
variable j equal (72-1)*500
rerun dump.cutsic.$j.lammpstrj dump x y z box yes scaled no format native
rerun dump.cutsic.35500.lammpstrj dump x y z box yes scaled no format native
Memory usage per processor = 104.568 Mbytes
Step Temp E_pair E_mol TotEng Press Volume 
   35500     327.4678   -1029095.8            0   -1022155.9    48098.442    1980862.4 
Loop time of 9.97251 on 1 procs for 1 steps with 163956 atoms

Pair  time (%) = 0 (0)
Neigh time (%) = 0 (0)
Comm  time (%) = 0 (0)
Outpt time (%) = 0 (0)
Other time (%) = 9.97251 (100)

Nlocal:    163956 ave 163956 max 163956 min
Histogram: 1 0 0 0 0 0 0 0 0 0
Nghost:    42680 ave 42680 max 42680 min
Histogram: 1 0 0 0 0 0 0 0 0 0
Neighs:    0 ave 0 max 0 min
Histogram: 1 0 0 0 0 0 0 0 0 0
FullNghs:  8.11378e+06 ave 8.11378e+06 max 8.11378e+06 min
Histogram: 1 0 0 0 0 0 0 0 0 0

Total # of neighbors = 8113782
Ave neighs/atom = 49.4876
Neighbor list builds = 0
Dangerous builds = 0
next i
jump SELF loop
variable i loop 801
variable j equal ($i-1)*500
variable j equal (73-1)*500
rerun dump.cutsic.$j.lammpstrj dump x y z box yes scaled no format native
rerun dump.cutsic.36000.lammpstrj dump x y z box yes scaled no format native
Memory usage per processor = 104.568 Mbytes
Step Temp E_pair E_mol TotEng Press Volume 
   36000     327.4678   -1028969.4            0   -1022029.4    52802.526      1970436 
Loop time of 10.1492 on 1 procs for 1 steps with 163956 atoms

Pair  time (%) = 0 (0)
Neigh time (%) = 0 (0)
Comm  time (%) = 0 (0)
Outpt time (%) = 0 (0)
Other time (%) = 10.1492 (100)

Nlocal:    163956 ave 163956 max 163956 min
Histogram: 1 0 0 0 0 0 0 0 0 0
Nghost:    42724 ave 42724 max 42724 min
Histogram: 1 0 0 0 0 0 0 0 0 0
Neighs:    0 ave 0 max 0 min
Histogram: 1 0 0 0 0 0 0 0 0 0
FullNghs:  8.12228e+06 ave 8.12228e+06 max 8.12228e+06 min
Histogram: 1 0 0 0 0 0 0 0 0 0

Total # of neighbors = 8122280
Ave neighs/atom = 49.5394
Neighbor list builds = 0
Dangerous builds = 0
next i
jump SELF loop
variable i loop 801
variable j equal ($i-1)*500
variable j equal (74-1)*500
rerun dump.cutsic.$j.lammpstrj dump x y z box yes scaled no format native
rerun dump.cutsic.36500.lammpstrj dump x y z box yes scaled no format native
Memory usage per processor = 104.568 Mbytes
Step Temp E_pair E_mol TotEng Press Volume 
   36500     327.4678   -1028806.4            0   -1021866.4     55507.28    1979385.5 
Loop time of 9.80947 on 1 procs for 1 steps with 163956 atoms

Pair  time (%) = 0 (0)
Neigh time (%) = 0 (0)
Comm  time (%) = 0 (0)
Outpt time (%) = 0 (0)
Other time (%) = 9.80947 (100)

Nlocal:    163956 ave 163956 max 163956 min
Histogram: 1 0 0 0 0 0 0 0 0 0
Nghost:    42565 ave 42565 max 42565 min
Histogram: 1 0 0 0 0 0 0 0 0 0
Neighs:    0 ave 0 max 0 min
Histogram: 1 0 0 0 0 0 0 0 0 0
FullNghs:  8.12939e+06 ave 8.12939e+06 max 8.12939e+06 min
Histogram: 1 0 0 0 0 0 0 0 0 0

Total # of neighbors = 8129394
Ave neighs/atom = 49.5828
Neighbor list builds = 0
Dangerous builds = 0
next i
jump SELF loop
variable i loop 801
variable j equal ($i-1)*500
variable j equal (75-1)*500
rerun dump.cutsic.$j.lammpstrj dump x y z box yes scaled no format native
rerun dump.cutsic.37000.lammpstrj dump x y z box yes scaled no format native
Memory usage per processor = 104.568 Mbytes
Step Temp E_pair E_mol TotEng Press Volume 
   37000     327.4678   -1028659.5            0   -1021719.5    56773.003    1970931.3 
Loop time of 9.99134 on 1 procs for 1 steps with 163956 atoms

Pair  time (%) = 0 (0)
Neigh time (%) = 0 (0)
Comm  time (%) = 0 (0)
Outpt time (%) = 0 (0)
Other time (%) = 9.99134 (100)

Nlocal:    163956 ave 163956 max 163956 min
Histogram: 1 0 0 0 0 0 0 0 0 0
Nghost:    42316 ave 42316 max 42316 min
Histogram: 1 0 0 0 0 0 0 0 0 0
Neighs:    0 ave 0 max 0 min
Histogram: 1 0 0 0 0 0 0 0 0 0
FullNghs:  8.13545e+06 ave 8.13545e+06 max 8.13545e+06 min
Histogram: 1 0 0 0 0 0 0 0 0 0

Total # of neighbors = 8135454
Ave neighs/atom = 49.6197
Neighbor list builds = 0
Dangerous builds = 0
next i
jump SELF loop
variable i loop 801
variable j equal ($i-1)*500
variable j equal (76-1)*500
rerun dump.cutsic.$j.lammpstrj dump x y z box yes scaled no format native
rerun dump.cutsic.37500.lammpstrj dump x y z box yes scaled no format native
Memory usage per processor = 104.568 Mbytes
Step Temp E_pair E_mol TotEng Press Volume 
   37500     327.4678   -1028552.2            0   -1021612.3    58350.071    1977366.8 
Loop time of 10.2728 on 1 procs for 1 steps with 163956 atoms

Pair  time (%) = 0 (0)
Neigh time (%) = 0 (0)
Comm  time (%) = 0 (0)
Outpt time (%) = 0 (0)
Other time (%) = 10.2728 (100)

Nlocal:    163956 ave 163956 max 163956 min
Histogram: 1 0 0 0 0 0 0 0 0 0
Nghost:    42339 ave 42339 max 42339 min
Histogram: 1 0 0 0 0 0 0 0 0 0
Neighs:    0 ave 0 max 0 min
Histogram: 1 0 0 0 0 0 0 0 0 0
FullNghs:  8.13702e+06 ave 8.13702e+06 max 8.13702e+06 min
Histogram: 1 0 0 0 0 0 0 0 0 0

Total # of neighbors = 8137016
Ave neighs/atom = 49.6293
Neighbor list builds = 0
Dangerous builds = 0
next i
jump SELF loop
variable i loop 801
variable j equal ($i-1)*500
variable j equal (77-1)*500
rerun dump.cutsic.$j.lammpstrj dump x y z box yes scaled no format native
rerun dump.cutsic.38000.lammpstrj dump x y z box yes scaled no format native
Memory usage per processor = 104.568 Mbytes
Step Temp E_pair E_mol TotEng Press Volume 
   38000     327.4678   -1028288.2            0   -1021348.2    57312.991    1987167.8 
Loop time of 10.5674 on 1 procs for 1 steps with 163956 atoms

Pair  time (%) = 0 (0)
Neigh time (%) = 0 (0)
Comm  time (%) = 0 (0)
Outpt time (%) = 0 (0)
Other time (%) = 10.5674 (100)

Nlocal:    163956 ave 163956 max 163956 min
Histogram: 1 0 0 0 0 0 0 0 0 0
Nghost:    42526 ave 42526 max 42526 min
Histogram: 1 0 0 0 0 0 0 0 0 0
Neighs:    0 ave 0 max 0 min
Histogram: 1 0 0 0 0 0 0 0 0 0
FullNghs:  8.13607e+06 ave 8.13607e+06 max 8.13607e+06 min
Histogram: 1 0 0 0 0 0 0 0 0 0

Total # of neighbors = 8136074
Ave neighs/atom = 49.6235
Neighbor list builds = 0
Dangerous builds = 0
next i
jump SELF loop
variable i loop 801
variable j equal ($i-1)*500
variable j equal (78-1)*500
rerun dump.cutsic.$j.lammpstrj dump x y z box yes scaled no format native
rerun dump.cutsic.38500.lammpstrj dump x y z box yes scaled no format native
Memory usage per processor = 104.568 Mbytes
Step Temp E_pair E_mol TotEng Press Volume 
   38500     327.4678   -1028089.7            0   -1021149.7     57774.49    1977233.9 
Loop time of 10.4998 on 1 procs for 1 steps with 163956 atoms

Pair  time (%) = 0 (0)
Neigh time (%) = 0 (0)
Comm  time (%) = 0 (0)
Outpt time (%) = 0 (0)
Other time (%) = 10.4998 (100)

Nlocal:    163956 ave 163956 max 163956 min
Histogram: 1 0 0 0 0 0 0 0 0 0
Nghost:    42731 ave 42731 max 42731 min
Histogram: 1 0 0 0 0 0 0 0 0 0
Neighs:    0 ave 0 max 0 min
Histogram: 1 0 0 0 0 0 0 0 0 0
FullNghs:  8.13726e+06 ave 8.13726e+06 max 8.13726e+06 min
Histogram: 1 0 0 0 0 0 0 0 0 0

Total # of neighbors = 8137264
Ave neighs/atom = 49.6308
Neighbor list builds = 0
Dangerous builds = 0
next i
jump SELF loop
variable i loop 801
variable j equal ($i-1)*500
variable j equal (79-1)*500
[...]
Histogram: 1 0 0 0 0 0 0 0 0 0
Neighs:    0 ave 0 max 0 min
Histogram: 1 0 0 0 0 0 0 0 0 0
FullNghs:  8.08058e+06 ave 8.08058e+06 max 8.08058e+06 min
Histogram: 1 0 0 0 0 0 0 0 0 0

Total # of neighbors = 8080576
Ave neighs/atom = 49.285
Neighbor list builds = 0
Dangerous builds = 0
next i
jump SELF loop
variable i loop 801
variable j equal ($i-1)*500
variable j equal (405-1)*500
rerun dump.cutsic.$j.lammpstrj dump x y z box yes scaled no format native
rerun dump.cutsic.202000.lammpstrj dump x y z box yes scaled no format native
Memory usage per processor = 104.945 Mbytes
Step Temp E_pair E_mol TotEng Press Volume 
  202000     327.4678   -1004109.7            0   -997169.76    71584.383    3225892.3 
Loop time of 11.3898 on 1 procs for 1 steps with 163956 atoms

Pair  time (%) = 0 (0)
Neigh time (%) = 0 (0)
Comm  time (%) = 0 (0)
Outpt time (%) = 0 (0)
Other time (%) = 11.3898 (100)

Nlocal:    163956 ave 163956 max 163956 min
Histogram: 1 0 0 0 0 0 0 0 0 0
Nghost:    42379 ave 42379 max 42379 min
Histogram: 1 0 0 0 0 0 0 0 0 0
Neighs:    0 ave 0 max 0 min
Histogram: 1 0 0 0 0 0 0 0 0 0
FullNghs:  8.08207e+06 ave 8.08207e+06 max 8.08207e+06 min
Histogram: 1 0 0 0 0 0 0 0 0 0

Total # of neighbors = 8082072
Ave neighs/atom = 49.2942
Neighbor list builds = 0
Dangerous builds = 0
next i
jump SELF loop
variable i loop 801
variable j equal ($i-1)*500
variable j equal (406-1)*500
rerun dump.cutsic.$j.lammpstrj dump x y z box yes scaled no format native
rerun dump.cutsic.202500.lammpstrj dump x y z box yes scaled no format native
Memory usage per processor = 104.956 Mbytes
Step Temp E_pair E_mol TotEng Press Volume 
  202500     327.4678   -1004008.7            0   -997068.74    71546.982    3231343.1 
Loop time of 11.3792 on 1 procs for 1 steps with 163956 atoms

Pair  time (%) = 0 (0)
Neigh time (%) = 0 (0)
Comm  time (%) = 0 (0)
Outpt time (%) = 0 (0)
Other time (%) = 11.3792 (100)

Nlocal:    163956 ave 163956 max 163956 min
Histogram: 1 0 0 0 0 0 0 0 0 0
Nghost:    42357 ave 42357 max 42357 min
Histogram: 1 0 0 0 0 0 0 0 0 0
Neighs:    0 ave 0 max 0 min
Histogram: 1 0 0 0 0 0 0 0 0 0
FullNghs:  8.08288e+06 ave 8.08288e+06 max 8.08288e+06 min
Histogram: 1 0 0 0 0 0 0 0 0 0

Total # of neighbors = 8082884
Ave neighs/atom = 49.2991
Neighbor list builds = 0
Dangerous builds = 0
next i
jump SELF loop
variable i loop 801
variable j equal ($i-1)*500
variable j equal (407-1)*500
rerun dump.cutsic.$j.lammpstrj dump x y z box yes scaled no format native
rerun dump.cutsic.203000.lammpstrj dump x y z box yes scaled no format native
Memory usage per processor = 104.956 Mbytes
Step Temp E_pair E_mol TotEng Press Volume 
  203000     327.4678   -1003899.5            0   -996959.54    72129.749    3243649.8 
Loop time of 11.606 on 1 procs for 1 steps with 163956 atoms

Pair  time (%) = 0 (0)
Neigh time (%) = 0 (0)
Comm  time (%) = 0 (0)
Outpt time (%) = 0 (0)
Other time (%) = 11.606 (100)

Nlocal:    163956 ave 163956 max 163956 min
Histogram: 1 0 0 0 0 0 0 0 0 0
Nghost:    42401 ave 42401 max 42401 min
Histogram: 1 0 0 0 0 0 0 0 0 0
Neighs:    0 ave 0 max 0 min
Histogram: 1 0 0 0 0 0 0 0 0 0
FullNghs:  8.08297e+06 ave 8.08297e+06 max 8.08297e+06 min
Histogram: 1 0 0 0 0 0 0 0 0 0

Total # of neighbors = 8082968
Ave neighs/atom = 49.2996
Neighbor list builds = 0
Dangerous builds = 0
next i
jump SELF loop
variable i loop 801
variable j equal ($i-1)*500
variable j equal (408-1)*500
rerun dump.cutsic.$j.lammpstrj dump x y z box yes scaled no format native
rerun dump.cutsic.203500.lammpstrj dump x y z box yes scaled no format native
Memory usage per processor = 104.956 Mbytes
Step Temp E_pair E_mol TotEng Press Volume 
  203500     327.4678   -1003727.6            0   -996787.61    71811.563    3239649.8 
Loop time of 11.4832 on 1 procs for 1 steps with 163956 atoms

Pair  time (%) = 0 (0)
Neigh time (%) = 0 (0)
Comm  time (%) = 0 (0)
Outpt time (%) = 0 (0)
Other time (%) = 11.4832 (100)

Nlocal:    163956 ave 163956 max 163956 min
Histogram: 1 0 0 0 0 0 0 0 0 0
Nghost:    42381 ave 42381 max 42381 min
Histogram: 1 0 0 0 0 0 0 0 0 0
Neighs:    0 ave 0 max 0 min
Histogram: 1 0 0 0 0 0 0 0 0 0
FullNghs:  8.08358e+06 ave 8.08358e+06 max 8.08358e+06 min
Histogram: 1 0 0 0 0 0 0 0 0 0

Total # of neighbors = 8083576
Ave neighs/atom = 49.3033
Neighbor list builds = 0
Dangerous builds = 0
next i
jump SELF loop
variable i loop 801
variable j equal ($i-1)*500
variable j equal (409-1)*500
rerun dump.cutsic.$j.lammpstrj dump x y z box yes scaled no format native
rerun dump.cutsic.204000.lammpstrj dump x y z box yes scaled no format native
Memory usage per processor = 104.956 Mbytes
Step Temp E_pair E_mol TotEng Press Volume 
  204000     327.4678   -1003671.9            0   -996731.94    71863.067    3248977.6 
Loop time of 11.427 on 1 procs for 1 steps with 163956 atoms

Pair  time (%) = 0 (0)
Neigh time (%) = 0 (0)
Comm  time (%) = 0 (0)
Outpt time (%) = 0 (0)
Other time (%) = 11.427 (100)

Nlocal:    163956 ave 163956 max 163956 min
Histogram: 1 0 0 0 0 0 0 0 0 0
Nghost:    42312 ave 42312 max 42312 min
Histogram: 1 0 0 0 0 0 0 0 0 0
Neighs:    0 ave 0 max 0 min
Histogram: 1 0 0 0 0 0 0 0 0 0
FullNghs:  8.08367e+06 ave 8.08367e+06 max 8.08367e+06 min
Histogram: 1 0 0 0 0 0 0 0 0 0

Total # of neighbors = 8083668
Ave neighs/atom = 49.3039
Neighbor list builds = 0
Dangerous builds = 0
next i
jump SELF loop
variable i loop 801
variable j equal ($i-1)*500
variable j equal (410-1)*500
rerun dump.cutsic.$j.lammpstrj dump x y z box yes scaled no format native
rerun dump.cutsic.204500.lammpstrj dump x y z box yes scaled no format native
Memory usage per processor = 104.956 Mbytes
Step Temp E_pair E_mol TotEng Press Volume 
  204500     327.4678   -1003516.1            0   -996576.12    72259.039    3243656.1 
Loop time of 12.4759 on 1 procs for 1 steps with 163956 atoms

Pair  time (%) = 0 (0)
Neigh time (%) = 0 (0)
Comm  time (%) = 0 (0)
Outpt time (%) = 0 (0)
Other time (%) = 12.4759 (100)

Nlocal:    163956 ave 163956 max 163956 min
Histogram: 1 0 0 0 0 0 0 0 0 0
Nghost:    42387 ave 42387 max 42387 min
Histogram: 1 0 0 0 0 0 0 0 0 0
Neighs:    0 ave 0 max 0 min
Histogram: 1 0 0 0 0 0 0 0 0 0
FullNghs:  8.08302e+06 ave 8.08302e+06 max 8.08302e+06 min
Histogram: 1 0 0 0 0 0 0 0 0 0

Total # of neighbors = 8083024
Ave neighs/atom = 49.3
Neighbor list builds = 0
Dangerous builds = 0
next i
jump SELF loop
variable i loop 801
variable j equal ($i-1)*500
variable j equal (411-1)*500
rerun dump.cutsic.$j.lammpstrj dump x y z box yes scaled no format native
rerun dump.cutsic.205000.lammpstrj dump x y z box yes scaled no format native
Memory usage per processor = 104.956 Mbytes
Step Temp E_pair E_mol TotEng Press Volume 
  205000     327.4678   -1003302.6            0    -996362.6     72130.12    3250948.6 
Loop time of 11.5723 on 1 procs for 1 steps with 163956 atoms

Pair  time (%) = 0 (0)
Neigh time (%) = 0 (0)
Comm  time (%) = 0 (0)
Outpt time (%) = 0 (0)
Other time (%) = 11.5723 (100)

Nlocal:    163956 ave 163956 max 163956 min
Histogram: 1 0 0 0 0 0 0 0 0 0
Nghost:    42325 ave 42325 max 42325 min
Histogram: 1 0 0 0 0 0 0 0 0 0
Neighs:    0 ave 0 max 0 min
Histogram: 1 0 0 0 0 0 0 0 0 0
FullNghs:  8.08144e+06 ave 8.08144e+06 max 8.08144e+06 min
Histogram: 1 0 0 0 0 0 0 0 0 0

Total # of neighbors = 8081436
Ave neighs/atom = 49.2903
Neighbor list builds = 0
Dangerous builds = 0
next i
jump SELF loop
variable i loop 801
variable j equal ($i-1)*500
variable j equal (412-1)*500
rerun dump.cutsic.$j.lammpstrj dump x y z box yes scaled no format native
rerun dump.cutsic.205500.lammpstrj dump x y z box yes scaled no format native
Memory usage per processor = 104.956 Mbytes
Step Temp E_pair E_mol TotEng Press Volume 
  205500     327.4678   -1003184.3            0   -996244.32    72326.087    3253269.3 
Loop time of 11.5753 on 1 procs for 1 steps with 163956 atoms

Pair  time (%) = 0 (0)
Neigh time (%) = 0 (0)
Comm  time (%) = 0 (0)
Outpt time (%) = 0 (0)
Other time (%) = 11.5753 (100)

Nlocal:    163956 ave 163956 max 163956 min
Histogram: 1 0 0 0 0 0 0 0 0 0
Nghost:    42374 ave 42374 max 42374 min
Histogram: 1 0 0 0 0 0 0 0 0 0
Neighs:    0 ave 0 max 0 min
Histogram: 1 0 0 0 0 0 0 0 0 0
FullNghs:  8.08266e+06 ave 8.08266e+06 max 8.08266e+06 min
Histogram: 1 0 0 0 0 0 0 0 0 0

Total # of neighbors = 8082660
Ave neighs/atom = 49.2977
Neighbor list builds = 0
Dangerous builds = 0
next i
jump SELF loop
variable i loop 801
variable j equal ($i-1)*500
variable j equal (413-1)*500
rerun dump.cutsic.$j.lammpstrj dump x y z box yes scaled no format native
rerun dump.cutsic.206000.lammpstrj dump x y z box yes scaled no format native
Memory usage per processor = 104.956 Mbytes
Step Temp E_pair E_mol TotEng Press Volume 
  206000     327.4678   -1003147.5            0   -996207.57    72272.236    3252479.4 
Loop time of 11.4545 on 1 procs for 1 steps with 163956 atoms

Pair  time (%) = 0 (0)
Neigh time (%) = 0 (0)
Comm  time (%) = 0 (0)
Outpt time (%) = 0 (0)
Other time (%) = 11.4545 (100)

Nlocal:    163956 ave 163956 max 163956 min
Histogram: 1 0 0 0 0 0 0 0 0 0
Nghost:    42318 ave 42318 max 42318 min
Histogram: 1 0 0 0 0 0 0 0 0 0
Neighs:    0 ave 0 max 0 min
Histogram: 1 0 0 0 0 0 0 0 0 0
FullNghs:  8.08463e+06 ave 8.08463e+06 max 8.08463e+06 min
Histogram: 1 0 0 0 0 0 0 0 0 0

Total # of neighbors = 8084634
Ave neighs/atom = 49.3098
Neighbor list builds = 0
Dangerous builds = 0
next i
jump SELF loop
variable i loop 801
variable j equal ($i-1)*500
variable j equal (414-1)*500
rerun dump.cutsic.$j.lammpstrj dump x y z box yes scaled no format native
rerun dump.cutsic.206500.lammpstrj dump x y z box yes scaled no format native
Memory usage per processor = 104.956 Mbytes
Step Temp E_pair E_mol TotEng Press Volume 
  206500     327.4678   -1002936.9            0   -995996.89    72215.991    3265416.8 
Loop time of 11.6331 on 1 procs for 1 steps with 163956 atoms

Pair  time (%) = 0 (0)
Neigh time (%) = 0 (0)
Comm  time (%) = 0 (0)
Outpt time (%) = 0 (0)
Other time (%) = 11.6331 (100)

Nlocal:    163956 ave 163956 max 163956 min
Histogram: 1 0 0 0 0 0 0 0 0 0
Nghost:    42387 ave 42387 max 42387 min
Histogram: 1 0 0 0 0 0 0 0 0 0
Neighs:    0 ave 0 max 0 min
Histogram: 1 0 0 0 0 0 0 0 0 0
FullNghs:  8.08174e+06 ave 8.08174e+06 max 8.08174e+06 min
Histogram: 1 0 0 0 0 0 0 0 0 0

Total # of neighbors = 8081738
Ave neighs/atom = 49.2921
Neighbor list builds = 0
Dangerous builds = 0
next i
jump SELF loop
variable i loop 801
variable j equal ($i-1)*500
variable j equal (415-1)*500
rerun dump.cutsic.$j.lammpstrj dump x y z box yes scaled no format native
rerun dump.cutsic.207000.lammpstrj dump x y z box yes scaled no format native
Memory usage per processor = 104.956 Mbytes
Step Temp E_pair E_mol TotEng Press Volume 
  207000     327.4678   -1002830.8            0   -995890.78     72300.13    3270830.4 
Loop time of 11.2775 on 1 procs for 1 steps with 163956 atoms

Pair  time (%) = 0 (0)
Neigh time (%) = 0 (0)
Comm  time (%) = 0 (0)
Outpt time (%) = 0 (0)
Other time (%) = 11.2775 (100)

Nlocal:    163956 ave 163956 max 163956 min
Histogram: 1 0 0 0 0 0 0 0 0 0
Nghost:    42387 ave 42387 max 42387 min
Histogram: 1 0 0 0 0 0 0 0 0 0
Neighs:    0 ave 0 max 0 min
Histogram: 1 0 0 0 0 0 0 0 0 0
FullNghs:  8.08431e+06 ave 8.08431e+06 max 8.08431e+06 min
Histogram: 1 0 0 0 0 0 0 0 0 0

Total # of neighbors = 8084314
Ave neighs/atom = 49.3078
Neighbor list builds = 0
Dangerous builds = 0
next i
jump SELF loop
variable i loop 801
variable j equal ($i-1)*500
variable j equal (416-1)*500
rerun dump.cutsic.$j.lammpstrj dump x y z box yes scaled no format native
rerun dump.cutsic.207500.lammpstrj dump x y z box yes scaled no format native
Memory usage per processor = 104.956 Mbytes
Step Temp E_pair E_mol TotEng Press Volume 
  207500     327.4678   -1002723.5            0   -995783.52    73418.995    3261275.8 
Loop time of 13.7851 on 1 procs for 1 steps with 163956 atoms

Pair  time (%) = 0 (0)
Neigh time (%) = 0 (0)
Comm  time (%) = 0 (0)
Outpt time (%) = 0 (0)
Other time (%) = 13.7851 (100)

Nlocal:    163956 ave 163956 max 163956 min
Histogram: 1 0 0 0 0 0 0 0 0 0
Nghost:    42428 ave 42428 max 42428 min
Histogram: 1 0 0 0 0 0 0 0 0 0
Neighs:    0 ave 0 max 0 min
Histogram: 1 0 0 0 0 0 0 0 0 0
FullNghs:  8.08632e+06 ave 8.08632e+06 max 8.08632e+06 min
Histogram: 1 0 0 0 0 0 0 0 0 0

Total # of neighbors = 8086318
Ave neighs/atom = 49.32
Neighbor list builds = 0
Dangerous builds = 0
next i
jump SELF loop
variable i loop 801
variable j equal ($i-1)*500
variable j equal (417-1)*500
rerun dump.cutsic.$j.lammpstrj dump x y z box yes scaled no format native
rerun dump.cutsic.208000.lammpstrj dump x y z box yes scaled no format native
Memory usage per processor = 104.956 Mbytes
Step Temp E_pair E_mol TotEng Press Volume 
  208000     327.4678   -1002539.8            0   -995599.87    73804.118    3265036.8 
Loop time of 11.5037 on 1 procs for 1 steps with 163956 atoms

Pair  time (%) = 0 (0)
Neigh time (%) = 0 (0)
Comm  time (%) = 0 (0)
Outpt time (%) = 0 (0)
Other time (%) = 11.5037 (100)

Nlocal:    163956 ave 163956 max 163956 min
Histogram: 1 0 0 0 0 0 0 0 0 0
Nghost:    42411 ave 42411 max 42411 min
Histogram: 1 0 0 0 0 0 0 0 0 0
Neighs:    0 ave 0 max 0 min
Histogram: 1 0 0 0 0 0 0 0 0 0
FullNghs:  8.08698e+06 ave 8.08698e+06 max 8.08698e+06 min
Histogram: 1 0 0 0 0 0 0 0 0 0

Total # of neighbors = 8086984
Ave neighs/atom = 49.3241
Neighbor list builds = 0
Dangerous builds = 0
next i
jump SELF loop
variable i loop 801
variable j equal ($i-1)*500
variable j equal (418-1)*500
rerun dump.cutsic.$j.lammpstrj dump x y z box yes scaled no format native
rerun dump.cutsic.208500.lammpstrj dump x y z box yes scaled no format native
Memory usage per processor = 104.956 Mbytes
Step Temp E_pair E_mol TotEng Press Volume 
  208500     327.4678   -1002410.8            0   -995470.87    73910.495    3268313.2 
Loop time of 11.5126 on 1 procs for 1 steps with 163956 atoms

Pair  time (%) = 0 (0)
Neigh time (%) = 0 (0)
Comm  time (%) = 0 (0)
Outpt time (%) = 0 (0)
Other time (%) = 11.5126 (100)

Nlocal:    163956 ave 163956 max 163956 min
Histogram: 1 0 0 0 0 0 0 0 0 0
Nghost:    42415 ave 42415 max 42415 min
Histogram: 1 0 0 0 0 0 0 0 0 0
Neighs:    0 ave 0 max 0 min
Histogram: 1 0 0 0 0 0 0 0 0 0
FullNghs:  8.08895e+06 ave 8.08895e+06 max 8.08895e+06 min
Histogram: 1 0 0 0 0 0 0 0 0 0

Total # of neighbors = 8088946
Ave neighs/atom = 49.3361
Neighbor list builds = 0
Dangerous builds = 0
next i
jump SELF loop
variable i loop 801
variable j equal ($i-1)*500
variable j equal (419-1)*500
rerun dump.cutsic.$j.lammpstrj dump x y z box yes scaled no format native
rerun dump.cutsic.209000.lammpstrj dump x y z box yes scaled no format native
Memory usage per processor = 104.956 Mbytes
Step Temp E_pair E_mol TotEng Press Volume 
  209000     327.4678   -1002318.1            0   -995378.11      73497.9    3269928.3 
Loop time of 11.7929 on 1 procs for 1 steps with 163956 atoms

Pair  time (%) = 0 (0)
Neigh time (%) = 0 (0)
Comm  time (%) = 0 (0)
Outpt time (%) = 0 (0)
Other time (%) = 11.7929 (100)

Nlocal:    163956 ave 163956 max 163956 min
Histogram: 1 0 0 0 0 0 0 0 0 0
Nghost:    42384 ave 42384 max 42384 min
Histogram: 1 0 0 0 0 0 0 0 0 0
Neighs:    0 ave 0 max 0 min
Histogram: 1 0 0 0 0 0 0 0 0 0
FullNghs:  8.08352e+06 ave 8.08352e+06 max 8.08352e+06 min
Histogram: 1 0 0 0 0 0 0 0 0 0

Total # of neighbors = 8083520
Ave neighs/atom = 49.303
Neighbor list builds = 0
Dangerous builds = 0
next i
jump SELF loop
variable i loop 801
variable j equal ($i-1)*500
variable j equal (420-1)*500
rerun dump.cutsic.$j.lammpstrj dump x y z box yes scaled no format native
rerun dump.cutsic.209500.lammpstrj dump x y z box yes scaled no format native
Memory usage per processor = 104.956 Mbytes
Step Temp E_pair E_mol TotEng Press Volume 
  209500     327.4678   -1002307.8            0   -995367.78     72565.86    3273699.4 
Loop time of 11.73 on 1 procs for 1 steps with 163956 atoms

Pair  time (%) = 0 (0)
Neigh time (%) = 0 (0)
Comm  time (%) = 0 (0)
Outpt time (%) = 0 (0)
Other time (%) = 11.73 (100)

Nlocal:    163956 ave 163956 max 163956 min
Histogram: 1 0 0 0 0 0 0 0 0 0
Nghost:    42358 ave 42358 max 42358 min
Histogram: 1 0 0 0 0 0 0 0 0 0
Neighs:    0 ave 0 max 0 min
Histogram: 1 0 0 0 0 0 0 0 0 0
FullNghs:  8.07751e+06 ave 8.07751e+06 max 8.07751e+06 min
Histogram: 1 0 0 0 0 0 0 0 0 0

Total # of neighbors = 8077510
Ave neighs/atom = 49.2663
Neighbor list builds = 0
Dangerous builds = 0
next i
jump SELF loop
variable i loop 801
variable j equal ($i-1)*500
variable j equal (421-1)*500
rerun dump.cutsic.$j.lammpstrj dump x y z box yes scaled no format native
rerun dump.cutsic.210000.lammpstrj dump x y z box yes scaled no format native
Memory usage per processor = 104.956 Mbytes
Step Temp E_pair E_mol TotEng Press Volume 
  210000     327.4678   -1002197.1            0   -995257.15    72284.244    3271636.8 
Loop time of 12.0314 on 1 procs for 1 steps with 163956 atoms

Pair  time (%) = 0 (0)
Neigh time (%) = 0 (0)
Comm  time (%) = 0 (0)
Outpt time (%) = 0 (0)
Other time (%) = 12.0314 (100)

Nlocal:    163956 ave 163956 max 163956 min
Histogram: 1 0 0 0 0 0 0 0 0 0
Nghost:    42322 ave 42322 max 42322 min
Histogram: 1 0 0 0 0 0 0 0 0 0
Neighs:    0 ave 0 max 0 min
Histogram: 1 0 0 0 0 0 0 0 0 0
FullNghs:  8.07409e+06 ave 8.07409e+06 max 8.07409e+06 min
Histogram: 1 0 0 0 0 0 0 0 0 0

Total # of neighbors = 8074086
Ave neighs/atom = 49.2454
Neighbor list builds = 0
Dangerous builds = 0
next i
jump SELF loop
variable i loop 801
variable j equal ($i-1)*500
variable j equal (422-1)*500
rerun dump.cutsic.$j.lammpstrj dump x y z box yes scaled no format native
rerun dump.cutsic.210500.lammpstrj dump x y z box yes scaled no format native
Memory usage per processor = 104.956 Mbytes
Step Temp E_pair E_mol TotEng Press Volume 
  210500     327.4678   -1002188.8            0   -995248.83    71394.612      3277306 
Loop time of 11.8226 on 1 procs for 1 steps with 163956 atoms

Pair  time (%) = 0 (0)
Neigh time (%) = 0 (0)
Comm  time (%) = 0 (0)
Outpt time (%) = 0 (0)
Other time (%) = 11.8226 (100)

Nlocal:    163956 ave 163956 max 163956 min
Histogram: 1 0 0 0 0 0 0 0 0 0
Nghost:    42340 ave 42340 max 42340 min
Histogram: 1 0 0 0 0 0 0 0 0 0
Neighs:    0 ave 0 max 0 min
Histogram: 1 0 0 0 0 0 0 0 0 0
FullNghs:  8.0707e+06 ave 8.0707e+06 max 8.0707e+06 min
Histogram: 1 0 0 0 0 0 0 0 0 0

Total # of neighbors = 8070696
Ave neighs/atom = 49.2248
Neighbor list builds = 0
Dangerous builds = 0
next i
jump SELF loop
variable i loop 801
variable j equal ($i-1)*500
variable j equal (423-1)*500
rerun dump.cutsic.$j.lammpstrj dump x y z box yes scaled no format native
rerun dump.cutsic.211000.lammpstrj dump x y z box yes scaled no format native
Memory usage per processor = 104.975 Mbytes
Step Temp E_pair E_mol TotEng Press Volume 
  211000     327.4678   -1002167.8            0   -995227.79      70352.7      3292022 
Loop time of 11.5422 on 1 procs for 1 steps with 163956 atoms

Pair  time (%) = 0 (0)
Neigh time (%) = 0 (0)
Comm  time (%) = 0 (0)
Outpt time (%) = 0 (0)
Other time (%) = 11.5422 (100)

Nlocal:    163956 ave 163956 max 163956 min
Histogram: 1 0 0 0 0 0 0 0 0 0
Nghost:    42322 ave 42322 max 42322 min
Histogram: 1 0 0 0 0 0 0 0 0 0
Neighs:    0 ave 0 max 0 min
Histogram: 1 0 0 0 0 0 0 0 0 0
FullNghs:  8.06894e+06 ave 8.06894e+06 max 8.06894e+06 min
Histogram: 1 0 0 0 0 0 0 0 0 0

Total # of neighbors = 8068944
Ave neighs/atom = 49.2141
Neighbor list builds = 0
Dangerous builds = 0
next i
jump SELF loop
variable i loop 801
variable j equal ($i-1)*500
variable j equal (424-1)*500
rerun dump.cutsic.$j.lammpstrj dump x y z box yes scaled no format native
rerun dump.cutsic.211500.lammpstrj dump x y z box yes scaled no format native
Memory usage per processor = 104.975 Mbytes
Step Temp E_pair E_mol TotEng Press Volume 
  211500     327.4678   -1002220.5            0   -995280.48    70404.071    329